 Entering Link 1 = C:\G09W\l1.exe PID=      4904.
  
 Copyright (c) 1988,1990,1992,1993,1995,1998,2003,2009,2013,
            Gaussian, Inc.  All Rights Reserved.
  
 This is part of the Gaussian(R) 09 program.  It is based on
 the Gaussian(R) 03 system (copyright 2003, Gaussian, Inc.),
 the Gaussian(R) 98 system (copyright 1998, Gaussian, Inc.),
 the Gaussian(R) 94 system (copyright 1995, Gaussian, Inc.),
 the Gaussian 92(TM) system (copyright 1992, Gaussian, Inc.),
 the Gaussian 90(TM) system (copyright 1990, Gaussian, Inc.),
 the Gaussian 88(TM) system (copyright 1988, Gaussian, Inc.),
 the Gaussian 86(TM) system (copyright 1986, Carnegie Mellon
 University), and the Gaussian 82(TM) system (copyright 1983,
 Carnegie Mellon University). Gaussian is a federally registered
 trademark of Gaussian, Inc.
  
 This software contains proprietary and confidential information,
 including trade secrets, belonging to Gaussian, Inc.
  
 This software is provided under written license and may be
 used, copied, transmitted, or stored only in accord with that
 written license.
  
 The following legend is applicable only to US Government
 contracts under FAR:
  
                    RESTRICTED RIGHTS LEGEND
  
 Use, reproduction and disclosure by the US Government is
 subject to restrictions as set forth in subparagraphs (a)
 and (c) of the Commercial Computer Software - Restricted
 Rights clause in FAR 52.227-19.
  
 Gaussian, Inc.
 340 Quinnipiac St., Bldg. 40, Wallingford CT 06492
  
  
 ---------------------------------------------------------------
 Warning -- This program may not be used in any manner that
 competes with the business of Gaussian, Inc. or will provide
 assistance to any competitor of Gaussian, Inc.  The licensee
 of this program is prohibited from giving any competitor of
 Gaussian, Inc. access to this program.  By using this program,
 the user acknowledges that Gaussian, Inc. is engaged in the
 business of creating and licensing software in the field of
 computational chemistry and represents and warrants to the
 licensee that it is not a competitor of Gaussian, Inc. and that
 it will not use this program in any manner prohibited above.
 ---------------------------------------------------------------
  

 Cite this work as:
 Gaussian 09, Revision D.01,
 M. J. Frisch, G. W. Trucks, H. B. Schlegel, G. E. Scuseria, 
 M. A. Robb, J. R. Cheeseman, G. Scalmani, V. Barone, B. Mennucci, 
 G. A. Petersson, H. Nakatsuji, M. Caricato, X. Li, H. P. Hratchian, 
 A. F. Izmaylov, J. Bloino, G. Zheng, J. L. Sonnenberg, M. Hada, 
 M. Ehara, K. Toyota, R. Fukuda, J. Hasegawa, M. Ishida, T. Nakajima, 
 Y. Honda, O. Kitao, H. Nakai, T. Vreven, J. A. Montgomery, Jr., 
 J. E. Peralta, F. Ogliaro, M. Bearpark, J. J. Heyd, E. Brothers, 
 K. N. Kudin, V. N. Staroverov, T. Keith, R. Kobayashi, J. Normand, 
 K. Raghavachari, A. Rendell, J. C. Burant, S. S. Iyengar, J. Tomasi, 
 M. Cossi, N. Rega, J. M. Millam, M. Klene, J. E. Knox, J. B. Cross, 
 V. Bakken, C. Adamo, J. Jaramillo, R. Gomperts, R. E. Stratmann, 
 O. Yazyev, A. J. Austin, R. Cammi, C. Pomelli, J. W. Ochterski, 
 R. L. Martin, K. Morokuma, V. G. Zakrzewski, G. A. Voth, 
 P. Salvador, J. J. Dannenberg, S. Dapprich, A. D. Daniels, 
 O. Farkas, J. B. Foresman, J. V. Ortiz, J. Cioslowski, 
 and D. J. Fox, Gaussian, Inc., Wallingford CT, 2013.
 
 ******************************************
 Gaussian 09:  IA32W-G09RevD.01 24-Apr-2013
                25-Oct-2025 
 ******************************************
 %nprocshared=3
 Will use up to    3 processors via shared memory.
 %mem=400MB
 %chk=C:\Grég_ethanol\ethanol_connectivity_with_solvent.chk
 ----------------------------------------------------------------
 # opt freq hf/3-21g scrf=(smd,solvent=toluene) geom=connectivity
 ----------------------------------------------------------------
 1/14=-1,18=20,19=15,38=1,57=2/1,3;
 2/9=110,12=2,17=6,18=5,40=1/2;
 3/5=5,11=9,16=1,25=1,30=1,70=32201,71=1,72=13/1,2,3;
 4//1;
 5/5=2,38=5,53=13/2;
 6/7=2,8=2,9=2,10=2,28=1/1;
 7//1,2,3,16;
 1/14=-1,18=20,19=15/3(2);
 2/9=110/2;
 99//99;
 2/9=110/2;
 3/5=5,11=9,16=1,25=1,30=1,70=32205,71=1,72=13/1,2,3;
 4/5=5,16=3,69=1/1;
 5/5=2,38=5,53=13/2;
 7//1,2,3,16;
 1/14=-1,18=20,19=15/3(-5);
 2/9=110/2;
 6/7=2,8=2,9=2,10=2,19=2,28=1/1;
 99/9=1/99;
 -------------
 title by user
 -------------
 Symbolic Z-matrix:
 Charge =  0 Multiplicity = 1
 C                    -1.07824  -0.05725   0. 
 H                    -0.72159  -1.06606   0. 
 H                    -0.72157   0.44715  -0.87365 
 H                    -2.14824  -0.05724   0. 
 C                    -0.5649    0.6687    1.2574 
 H                    -0.91996   1.67808   1.25643 
 H                     0.5051    0.667     1.25838 
 O                    -1.04371  -0.00389   2.42499 
 H                    -0.72392   0.44833   3.20911 
 

 GradGradGradGradGradGradGradGradGradGradGradGradGradGradGradGradGradGrad
 Berny optimization.
 Initialization pass.
                           ----------------------------
                           !    Initial Parameters    !
                           ! (Angstroms and Degrees)  !
 --------------------------                            --------------------------
 ! Name  Definition              Value          Derivative Info.                !
 --------------------------------------------------------------------------------
 ! R1    R(1,2)                  1.07           estimate D2E/DX2                !
 ! R2    R(1,3)                  1.07           estimate D2E/DX2                !
 ! R3    R(1,4)                  1.07           estimate D2E/DX2                !
 ! R4    R(1,5)                  1.54           estimate D2E/DX2                !
 ! R5    R(5,6)                  1.07           estimate D2E/DX2                !
 ! R6    R(5,7)                  1.07           estimate D2E/DX2                !
 ! R7    R(5,8)                  1.43           estimate D2E/DX2                !
 ! R8    R(8,9)                  0.96           estimate D2E/DX2                !
 ! A1    A(2,1,3)              109.4712         estimate D2E/DX2                !
 ! A2    A(2,1,4)              109.4712         estimate D2E/DX2                !
 ! A3    A(2,1,5)              109.4712         estimate D2E/DX2                !
 ! A4    A(3,1,4)              109.4712         estimate D2E/DX2                !
 ! A5    A(3,1,5)              109.4713         estimate D2E/DX2                !
 ! A6    A(4,1,5)              109.4712         estimate D2E/DX2                !
 ! A7    A(1,5,6)              109.4712         estimate D2E/DX2                !
 ! A8    A(1,5,7)              109.4712         estimate D2E/DX2                !
 ! A9    A(1,5,8)              109.4712         estimate D2E/DX2                !
 ! A10   A(6,5,7)              109.4712         estimate D2E/DX2                !
 ! A11   A(6,5,8)              109.4713         estimate D2E/DX2                !
 ! A12   A(7,5,8)              109.4712         estimate D2E/DX2                !
 ! A13   A(5,8,9)              109.5            estimate D2E/DX2                !
 ! D1    D(2,1,5,6)            179.8889         estimate D2E/DX2                !
 ! D2    D(2,1,5,7)             59.8889         estimate D2E/DX2                !
 ! D3    D(2,1,5,8)            -60.1111         estimate D2E/DX2                !
 ! D4    D(3,1,5,6)             59.8889         estimate D2E/DX2                !
 ! D5    D(3,1,5,7)            -60.1111         estimate D2E/DX2                !
 ! D6    D(3,1,5,8)            179.8889         estimate D2E/DX2                !
 ! D7    D(4,1,5,6)            -60.1111         estimate D2E/DX2                !
 ! D8    D(4,1,5,7)            179.8889         estimate D2E/DX2                !
 ! D9    D(4,1,5,8)             59.8889         estimate D2E/DX2                !
 ! D10   D(1,5,8,9)            179.999          estimate D2E/DX2                !
 ! D11   D(6,5,8,9)            -60.0011         estimate D2E/DX2                !
 ! D12   D(7,5,8,9)             59.999          estimate D2E/DX2                !
 --------------------------------------------------------------------------------
 Trust Radius=3.00D-01 FncErr=1.00D-07 GrdErr=1.00D-07
 Number of steps in this run=     43 maximum allowed number of steps=    100.
 GradGradGradGradGradGradGradGradGradGradGradGradGradGradGradGradGradGrad

                          Input orientation:                          
 ---------------------------------------------------------------------
 Center     Atomic      Atomic             Coordinates (Angstroms)
 Number     Number       Type             X           Y           Z
 ---------------------------------------------------------------------
      1          6           0       -1.078244   -0.057252    0.000000
      2          1           0       -0.721590   -1.066062    0.000000
      3          1           0       -0.721571    0.447146   -0.873652
      4          1           0       -2.148244   -0.057239    0.000000
      5          6           0       -0.564902    0.668704    1.257405
      6          1           0       -0.919958    1.678077    1.256427
      7          1           0        0.505096    0.666998    1.258384
      8          8           0       -1.043710   -0.003888    2.424993
      9          1           0       -0.723920    0.448325    3.209109
 ---------------------------------------------------------------------
                    Distance matrix (angstroms):
                    1          2          3          4          5
     1  C    0.000000
     2  H    1.070000   0.000000
     3  H    1.070000   1.747302   0.000000
     4  H    1.070000   1.747303   1.747303   0.000000
     5  C    1.540000   2.148263   2.148263   2.148263   0.000000
     6  H    2.148263   3.024609   2.468154   2.469538   1.070000
     7  H    2.148263   2.468154   2.469539   3.024610   1.070000
     8  O    2.425826   2.666940   3.344886   2.665227   1.430000
     9  H    3.267955   3.548486   4.082761   3.547206   1.970533
                    6          7          8          9
     6  H    0.000000
     7  H    1.747303   0.000000
     8  O    2.051796   2.051796   0.000000
     9  H    2.315963   2.315950   0.960000   0.000000
 Stoichiometry    C2H6O
 Framework group  C1[X(C2H6O)]
 Deg. of freedom    21
 Full point group                 C1      NOp   1
 Largest Abelian subgroup         C1      NOp   1
 Largest concise Abelian subgroup C1      NOp   1
                         Standard orientation:                         
 ---------------------------------------------------------------------
 Center     Atomic      Atomic             Coordinates (Angstroms)
 Number     Number       Type             X           Y           Z
 ---------------------------------------------------------------------
      1          6           0        1.249922   -0.221655    0.000001
      2          1           0        1.310067   -0.835095    0.874629
      3          1           0        2.060234    0.477124   -0.001954
      4          1           0        1.308388   -0.838036   -0.872671
      5          6           0       -0.087029    0.542650   -0.000001
      6          1           0       -0.146332    1.157561   -0.873652
      7          1           0       -0.146334    1.157562    0.873650
      8          8           0       -1.169969   -0.391235   -0.000002
      9          1           0       -2.003632    0.084796    0.000013
 ---------------------------------------------------------------------
 Rotational constants (GHZ):     36.3552791      9.0935545      7.9810058
 Standard basis: 3-21G (6D, 7F)
 There are    39 symmetry adapted cartesian basis functions of A   symmetry.
 There are    39 symmetry adapted basis functions of A   symmetry.
    39 basis functions,    63 primitive gaussians,    39 cartesian basis functions
    13 alpha electrons       13 beta electrons
       nuclear repulsion energy        81.6946236945 Hartrees.
 NAtoms=    9 NActive=    9 NUniq=    9 SFac= 1.00D+00 NAtFMM=   60 NAOKFM=F Big=F
 Integral buffers will be    262144 words long.
 Raffenetti 1 integral format.
 Two-electron integral symmetry is turned on.
 ------------------------------------------------------------------------------
 Polarizable Continuum Model (PCM)
 =================================
 Model                : PCM (using non-symmetric T matrix).
 Atomic radii         : SMD-Coulomb.
 Polarization charges : Total charges.
 Charge compensation  : None.
 Solution method      : On-the-fly selection.
 Cavity type          : VdW (van der Waals Surface) (Alpha=1.000).
 Cavity algorithm     : GePol (No added spheres)
                        Default sphere list used, NSphG=    9.
                        Lebedev-Laikov grids with approx.  5.0 points / Ang**2.
                        Smoothing algorithm: Karplus/York (Gamma=1.0000).
                        Polarization charges: spherical gaussians, with
                                              point-specific exponents (IZeta= 3).
                        Self-potential: point-specific (ISelfS= 7).
                        Self-field    : sphere-specific E.n sum rule (ISelfD= 2).
 1st derivatives      : Analytical E(r).r(x)/FMM algorithm (CHGder, D1EAlg=3).
                        Cavity 1st derivative terms included.
 Solvent              : Toluene, Eps=   2.374100 Eps(inf)=   2.238315
 ------------------------------------------------------------------------------
 Spheres list:
 ISph  on   Nord     Re0    Alpha      Xe            Ye            Ze
    1   C      1    1.8500  1.000      1.249922     -0.221655      0.000001
    2   H      2    1.2000  1.000      1.310067     -0.835095      0.874629
    3   H      3    1.2000  1.000      2.060234      0.477124     -0.001954
    4   H      4    1.2000  1.000      1.308388     -0.838036     -0.872671
    5   C      5    1.8500  1.000     -0.087029      0.542650     -0.000001
    6   H      6    1.2000  1.000     -0.146332      1.157561     -0.873652
    7   H      7    1.2000  1.000     -0.146334      1.157562      0.873650
    8   O      8    2.2940  1.000     -1.169969     -0.391235     -0.000002
    9   H      9    1.2000  1.000     -2.003632      0.084796      0.000013
 ------------------------------------------------------------------------------
 ------------------------------------------------------------------------------
 Atomic radii for non-electrostatic terms: SMD-CDS.
 ------------------------------------------------------------------------------
 Nuclear repulsion after PCM non-electrostatic terms =       81.6923939811 Hartrees.
 One-electron integrals computed using PRISM.
 NBasis=    39 RedAO= T EigKep=  1.61D-02  NBF=    39
 NBsUse=    39 1.00D-06 EigRej= -1.00D+00 NBFU=    39
 ExpMin= 1.83D-01 ExpMax= 3.22D+02 ExpMxC= 3.22D+02 IAcc=1 IRadAn=         1 AccDes= 0.00D+00
 Harris functional with IExCor=  205 and IRadAn=       1 diagonalized for initial guess.
 HarFok:  IExCor=  205 AccDes= 0.00D+00 IRadAn=         1 IDoV= 1 UseB2=F ITyADJ=14
 ICtDFT=  3500011 ScaDFX=  1.000000  1.000000  1.000000  1.000000
 FoFCou: FMM=F IPFlag=           0 FMFlag=      100000 FMFlg1=           0
         NFxFlg=           0 DoJE=T BraDBF=F KetDBF=T FulRan=T
         wScrn=  0.000000 ICntrl=     500 IOpCl=  0 I1Cent=   200000004 NGrid=           0
         NMat0=    1 NMatS0=      1 NMatT0=    0 NMatD0=    1 NMtDS0=    0 NMtDT0=    0
 Petite list used in FoFCou.
 Keep R1 ints in memory in canonical form, NReq=3882991.
 Requested convergence on RMS density matrix=1.00D-08 within 128 cycles.
 Requested convergence on MAX density matrix=1.00D-06.
 Requested convergence on             energy=1.00D-06.
 No special actions if energy rises.
 Inv3:  Mode=1 IEnd=     1839267.
 Iteration    1 A*A^-1 deviation from unit magnitude is 2.33D-15 for     77.
 Iteration    1 A*A^-1 deviation from orthogonality  is 9.88D-16 for    354    127.
 Iteration    1 A^-1*A deviation from unit magnitude is 1.89D-15 for    130.
 Iteration    1 A^-1*A deviation from orthogonality  is 3.71D-15 for    599    220.
 Error on total polarization charges =  0.00893
 SCF Done:  E(RHF) =  -153.225902219     A.U. after   11 cycles
            NFock= 11  Conv=0.28D-08     -V/T= 2.0015
 SMD-CDS (non-electrostatic) energy       (kcal/mol) =      -1.40
 (included in total energy above)

 **********************************************************************

            Population analysis using the SCF density.

 **********************************************************************

 Orbital symmetries:
       Occupied  (A) (A) (A) (A) (A) (A) (A) (A) (A) (A) (A) (A)
                 (A)
       Virtual   (A) (A) (A) (A) (A) (A) (A) (A) (A) (A) (A) (A)
                 (A) (A) (A) (A) (A) (A) (A) (A) (A) (A) (A) (A)
                 (A) (A)
 The electronic state is 1-A.
 Alpha  occ. eigenvalues --  -20.42687 -11.20733 -11.14452  -1.33740  -1.00894
 Alpha  occ. eigenvalues --   -0.83695  -0.67630  -0.64515  -0.55317  -0.52722
 Alpha  occ. eigenvalues --   -0.52455  -0.46156  -0.42420
 Alpha virt. eigenvalues --    0.27013   0.31016   0.34714   0.35671   0.36900
 Alpha virt. eigenvalues --    0.38792   0.42266   0.45475   0.91933   0.96325
 Alpha virt. eigenvalues --    0.98434   1.03102   1.07412   1.13133   1.27966
 Alpha virt. eigenvalues --    1.32986   1.35569   1.38692   1.39268   1.45056
 Alpha virt. eigenvalues --    1.89755   1.93423   2.00681   2.17304   2.31660
 Alpha virt. eigenvalues --    3.40836
          Condensed to atoms (all electrons):
               1          2          3          4          5          6
     1  C    5.406272   0.373494   0.361989   0.373437   0.247483  -0.051577
     2  H    0.373494   0.495552  -0.023476  -0.025230  -0.042607   0.003843
     3  H    0.361989  -0.023476   0.520367  -0.023458  -0.042108   0.000715
     4  H    0.373437  -0.025230  -0.023458   0.495475  -0.042598  -0.003793
     5  C    0.247483  -0.042607  -0.042108  -0.042598   5.058973   0.365718
     6  H   -0.051577   0.003843   0.000715  -0.003793   0.365718   0.577621
     7  H   -0.051562  -0.003816   0.000727   0.003845   0.365697  -0.044362
     8  O   -0.042579   0.001984   0.001389   0.001991   0.222712  -0.037832
     9  H    0.005104  -0.000099  -0.000140  -0.000099  -0.045258  -0.002309
               7          8          9
     1  C   -0.051562  -0.042579   0.005104
     2  H   -0.003816   0.001984  -0.000099
     3  H    0.000727   0.001389  -0.000140
     4  H    0.003845   0.001991  -0.000099
     5  C    0.365697   0.222712  -0.045258
     6  H   -0.044362  -0.037832  -0.002309
     7  H    0.577628  -0.037835  -0.002310
     8  O   -0.037835   8.319796   0.269686
     9  H   -0.002310   0.269686   0.394790
 Mulliken charges:
               1
     1  C   -0.622059
     2  H    0.220356
     3  H    0.203995
     4  H    0.220431
     5  C   -0.088011
     6  H    0.191977
     7  H    0.191988
     8  O   -0.699313
     9  H    0.380636
 Sum of Mulliken charges =   0.00000
 Mulliken charges with hydrogens summed into heavy atoms:
               1
     1  C    0.022722
     5  C    0.295955
     8  O   -0.318677
 Electronic spatial extent (au):  <R**2>=            195.1480
 Charge=              0.0000 electrons
 Dipole moment (field-independent basis, Debye):
    X=             -0.1167    Y=              2.1138    Z=              0.0000  Tot=              2.1170
 Quadrupole moment (field-independent basis, Debye-Ang):
   XX=            -16.6951   YY=            -20.5568   ZZ=            -19.8746
   XY=             -2.3417   XZ=             -0.0002   YZ=              0.0003
 Traceless Quadrupole moment (field-independent basis, Debye-Ang):
   XX=              2.3471   YY=             -1.5147   ZZ=             -0.8324
   XY=             -2.3417   XZ=             -0.0002   YZ=              0.0003
 Octapole moment (field-independent basis, Debye-Ang**2):
  XXX=            -17.0357  YYY=             -0.4510  ZZZ=              0.0036  XYY=             -0.7810
  XXY=              3.1845  XXZ=             -0.0008  XZZ=             -1.7566  YZZ=             -0.4638
  YYZ=             -0.0028  XYZ=             -0.0012
 Hexadecapole moment (field-independent basis, Debye-Ang**3):
 XXXX=           -131.6671 YYYY=            -53.0580 ZZZZ=            -29.9714 XXXY=             -0.6223
 XXXZ=             -0.0044 YYYX=              1.0598 YYYZ=              0.0041 ZZZX=              0.0056
 ZZZY=             -0.0011 XXYY=            -35.4985 XXZZ=            -31.9600 YYZZ=            -12.5970
 XXYZ=             -0.0040 YYXZ=             -0.0033 ZZXY=             -0.7090
 N-N= 8.169239398107D+01 E-N=-5.232214168230D+02  KE= 1.529980536680D+02
 D1PCM: PCM CHGder 1st derivatives, ID1Alg=3 FixD1E=F DoIter=F DoCFld=F I1PDM=0.
 Calling FoFJK, ICntrl=      2127 FMM=F ISym2X=0 I1Cent= 0 IOpClX= 0 NMat=1 NMatS=1 NMatT=0.
 ***** Axes restored to original set *****
 -------------------------------------------------------------------
 Center     Atomic                   Forces (Hartrees/Bohr)
 Number     Number              X              Y              Z
 -------------------------------------------------------------------
      1        6           0.004818206    0.006803447    0.019096547
      2        1           0.002100515   -0.009333892   -0.000707569
      3        1           0.003056884    0.004305819   -0.008708823
      4        1          -0.009496248   -0.001108685   -0.000696914
      5        6          -0.003762942   -0.005298788   -0.010514879
      6        1          -0.000641074    0.011705484   -0.002991593
      7        1           0.011264160    0.003269782   -0.002983096
      8        8          -0.008851467   -0.012484692    0.000599573
      9        1           0.001511967    0.002141525    0.006906754
 -------------------------------------------------------------------
 Cartesian Forces:  Max     0.019096547 RMS     0.007345035

 GradGradGradGradGradGradGradGradGradGradGradGradGradGradGradGradGradGrad
 Berny optimization.
 FormGI is forming the generalized inverse of G from B-inverse, IUseBI=4.
 Internal  Forces:  Max     0.013468704 RMS     0.005775234
 Search for a local minimum.
 Step number   1 out of a maximum of   43
 All quantities printed in internal units (Hartrees-Bohrs-Radians)
 Mixed Optimization -- RFO/linear search
 Second derivative matrix not updated -- first step.
 ITU=  0
     Eigenvalues ---    0.00237   0.01295   0.05139   0.05720   0.05720
     Eigenvalues ---    0.05816   0.11239   0.13704   0.16000   0.16000
     Eigenvalues ---    0.16000   0.16000   0.22071   0.28519   0.37230
     Eigenvalues ---    0.37230   0.37230   0.37230   0.37230   0.40989
     Eigenvalues ---    0.55473
 RFO step:  Lambda=-3.56368573D-03 EMin= 2.36824062D-03
 Linear search not attempted -- first point.
 Iteration  1 RMS(Cart)=  0.03798088 RMS(Int)=  0.00063840
 Iteration  2 RMS(Cart)=  0.00074377 RMS(Int)=  0.00027121
 Iteration  3 RMS(Cart)=  0.00000038 RMS(Int)=  0.00027121
 Variable       Old X    -DE/DX   Delta X   Delta X   Delta X     New X
                                 (Linear)    (Quad)   (Total)
    R1        2.02201   0.00950   0.00000   0.02526   0.02526   2.04727
    R2        2.02201   0.01017   0.00000   0.02705   0.02705   2.04906
    R3        2.02201   0.00949   0.00000   0.02525   0.02525   2.04726
    R4        2.91018  -0.00782   0.00000  -0.02707  -0.02707   2.88311
    R5        2.02201   0.01126   0.00000   0.02995   0.02995   2.05195
    R6        2.02201   0.01125   0.00000   0.02994   0.02994   2.05195
    R7        2.70231   0.01347   0.00000   0.03258   0.03258   2.73488
    R8        1.81414   0.00714   0.00000   0.01280   0.01280   1.82693
    A1        1.91063  -0.00079   0.00000  -0.00354  -0.00356   1.90707
    A2        1.91063  -0.00152   0.00000  -0.01180  -0.01181   1.89883
    A3        1.91063   0.00124   0.00000   0.00696   0.00694   1.91757
    A4        1.91063  -0.00077   0.00000  -0.00351  -0.00353   1.90710
    A5        1.91063   0.00064   0.00000   0.00516   0.00514   1.91577
    A6        1.91063   0.00120   0.00000   0.00672   0.00670   1.91733
    A7        1.91063   0.00159   0.00000  -0.00195  -0.00161   1.90903
    A8        1.91063   0.00159   0.00000  -0.00199  -0.00165   1.90899
    A9        1.91063  -0.01247   0.00000  -0.05226  -0.05202   1.85861
   A10        1.91063  -0.00274   0.00000  -0.02163  -0.02224   1.88840
   A11        1.91063   0.00602   0.00000   0.03893   0.03857   1.94920
   A12        1.91063   0.00602   0.00000   0.03890   0.03853   1.94916
   A13        1.91114   0.00338   0.00000   0.02064   0.02064   1.93177
    D1        3.13965  -0.00051   0.00000  -0.01055  -0.01061   3.12904
    D2        1.04526   0.00089   0.00000   0.01836   0.01844   1.06370
    D3       -1.04914   0.00019   0.00000   0.00394   0.00394  -1.04519
    D4        1.04526  -0.00070   0.00000  -0.01364  -0.01371   1.03155
    D5       -1.04914   0.00071   0.00000   0.01527   0.01534  -1.03380
    D6        3.13965   0.00000   0.00000   0.00085   0.00085   3.14050
    D7       -1.04914  -0.00088   0.00000  -0.01662  -0.01670  -1.06583
    D8        3.13965   0.00052   0.00000   0.01229   0.01235  -3.13118
    D9        1.04526  -0.00018   0.00000  -0.00213  -0.00214   1.04312
   D10        3.14157   0.00000   0.00000  -0.00008  -0.00008   3.14149
   D11       -1.04722  -0.00201   0.00000  -0.01063  -0.01149  -1.05870
   D12        1.04718   0.00201   0.00000   0.01054   0.01139   1.05857
         Item               Value     Threshold  Converged?
 Maximum Force            0.013469     0.000450     NO 
 RMS     Force            0.005775     0.000300     NO 
 Maximum Displacement     0.098696     0.001800     NO 
 RMS     Displacement     0.038262     0.001200     NO 
 Predicted change in Energy=-1.811815D-03
 GradGradGradGradGradGradGradGradGradGradGradGradGradGradGradGradGradGrad

                          Input orientation:                          
 ---------------------------------------------------------------------
 Center     Atomic      Atomic             Coordinates (Angstroms)
 Number     Number       Type             X           Y           Z
 ---------------------------------------------------------------------
      1          6           0       -1.074681   -0.052255    0.021637
      2          1           0       -0.720059   -1.075909    0.029502
      3          1           0       -0.725656    0.440400   -0.879035
      4          1           0       -2.158003   -0.058091    0.029046
      5          6           0       -0.552060    0.687007    1.249665
      6          1           0       -0.901473    1.714855    1.227248
      7          1           0        0.533540    0.697370    1.229003
      8          8           0       -1.058037   -0.024663    2.403793
      9          1           0       -0.760616    0.396098    3.221807
 ---------------------------------------------------------------------
                    Distance matrix (angstroms):
                    1          2          3          4          5
     1  C    0.000000
     2  H    1.083368   0.000000
     3  H    1.084315   1.767672   0.000000
     4  H    1.083363   1.761714   1.767688   0.000000
     5  C    1.525677   2.150556   2.149957   2.150380   0.000000
     6  H    2.146200   3.042346   2.468112   2.481510   1.085847
     7  H    2.146169   2.480893   2.468893   3.042207   1.085845
     8  O    2.382373   2.618512   3.332225   2.617339   1.447238
     9  H    3.246651   3.515574   4.101231   3.514641   2.004363
                    6          7          8          9
     6  H    0.000000
     7  H    1.759130   0.000000
     8  O    2.105871   2.105844   0.000000
     9  H    2.395251   2.395177   0.966771   0.000000
 Stoichiometry    C2H6O
 Framework group  C1[X(C2H6O)]
 Deg. of freedom    21
 Full point group                 C1      NOp   1
 Largest Abelian subgroup         C1      NOp   1
 Largest concise Abelian subgroup C1      NOp   1
                         Standard orientation:                         
 ---------------------------------------------------------------------
 Center     Atomic      Atomic             Coordinates (Angstroms)
 Number     Number       Type             X           Y           Z
 ---------------------------------------------------------------------
      1          6           0        1.220792   -0.237379    0.000005
      2          1           0        1.263639   -0.865935    0.881349
      3          1           0        2.070902    0.435712   -0.001095
      4          1           0        1.262457   -0.867371   -0.880364
      5          6           0       -0.074980    0.568020    0.000006
      6          1           0       -0.103827    1.204140   -0.879530
      7          1           0       -0.103830    1.204055    0.879601
      8          8           0       -1.156446   -0.393713   -0.000013
      9          1           0       -2.012644    0.055255    0.000077
 ---------------------------------------------------------------------
 Rotational constants (GHZ):     34.4044001      9.3500978      8.0869233
 Standard basis: 3-21G (6D, 7F)
 There are    39 symmetry adapted cartesian basis functions of A   symmetry.
 There are    39 symmetry adapted basis functions of A   symmetry.
    39 basis functions,    63 primitive gaussians,    39 cartesian basis functions
    13 alpha electrons       13 beta electrons
       nuclear repulsion energy        81.4668835175 Hartrees.
 NAtoms=    9 NActive=    9 NUniq=    9 SFac= 1.00D+00 NAtFMM=   60 NAOKFM=F Big=F
 Integral buffers will be    262144 words long.
 Raffenetti 1 integral format.
 Two-electron integral symmetry is turned on.
 ------------------------------------------------------------------------------
 Polarizable Continuum Model (PCM)
 =================================
 Model                : PCM (using non-symmetric T matrix).
 Atomic radii         : SMD-Coulomb.
 Polarization charges : Total charges.
 Charge compensation  : None.
 Solution method      : On-the-fly selection.
 Cavity type          : VdW (van der Waals Surface) (Alpha=1.000).
 Cavity algorithm     : GePol (No added spheres)
                        Default sphere list used, NSphG=    9.
                        Lebedev-Laikov grids with approx.  5.0 points / Ang**2.
                        Smoothing algorithm: Karplus/York (Gamma=1.0000).
                        Polarization charges: spherical gaussians, with
                                              point-specific exponents (IZeta= 3).
                        Self-potential: point-specific (ISelfS= 7).
                        Self-field    : sphere-specific E.n sum rule (ISelfD= 2).
 1st derivatives      : Analytical E(r).r(x)/FMM algorithm (CHGder, D1EAlg=3).
                        Cavity 1st derivative terms included.
 Solvent              : Toluene, Eps=   2.374100 Eps(inf)=   2.238315
 ------------------------------------------------------------------------------
 Spheres list:
 ISph  on   Nord     Re0    Alpha      Xe            Ye            Ze
    1   C      1    1.8500  1.000      1.220792     -0.237379      0.000005
    2   H      2    1.2000  1.000      1.263639     -0.865935      0.881349
    3   H      3    1.2000  1.000      2.070902      0.435712     -0.001095
    4   H      4    1.2000  1.000      1.262457     -0.867371     -0.880364
    5   C      5    1.8500  1.000     -0.074980      0.568020      0.000006
    6   H      6    1.2000  1.000     -0.103827      1.204140     -0.879530
    7   H      7    1.2000  1.000     -0.103830      1.204055      0.879601
    8   O      8    2.2940  1.000     -1.156446     -0.393713     -0.000013
    9   H      9    1.2000  1.000     -2.012644      0.055255      0.000077
 ------------------------------------------------------------------------------
 ------------------------------------------------------------------------------
 Atomic radii for non-electrostatic terms: SMD-CDS.
 ------------------------------------------------------------------------------
 Nuclear repulsion after PCM non-electrostatic terms =       81.4646138873 Hartrees.
 One-electron integrals computed using PRISM.
 NBasis=    39 RedAO= T EigKep=  1.61D-02  NBF=    39
 NBsUse=    39 1.00D-06 EigRej= -1.00D+00 NBFU=    39
 Initial guess from the checkpoint file:  "C:\Grég_ethanol\ethanol_connectivity_with_solvent.chk"
 B after Tr=     0.000000    0.000000    0.000000
         Rot=    0.999984   -0.000126    0.000015    0.005596 Ang=  -0.64 deg.
 ExpMin= 1.83D-01 ExpMax= 3.22D+02 ExpMxC= 3.22D+02 IAcc=1 IRadAn=         1 AccDes= 0.00D+00
 Harris functional with IExCor=  205 and IRadAn=       1 diagonalized for initial guess.
 HarFok:  IExCor=  205 AccDes= 0.00D+00 IRadAn=         1 IDoV= 1 UseB2=F ITyADJ=14
 ICtDFT=  3500011 ScaDFX=  1.000000  1.000000  1.000000  1.000000
 FoFCou: FMM=F IPFlag=           0 FMFlag=      100000 FMFlg1=           0
         NFxFlg=           0 DoJE=T BraDBF=F KetDBF=T FulRan=T
         wScrn=  0.000000 ICntrl=     500 IOpCl=  0 I1Cent=   200000004 NGrid=           0
         NMat0=    1 NMatS0=      1 NMatT0=    0 NMatD0=    1 NMtDS0=    0 NMtDT0=    0
 Petite list used in FoFCou.
 Keep R1 ints in memory in canonical form, NReq=3869353.
 Requested convergence on RMS density matrix=1.00D-08 within 128 cycles.
 Requested convergence on MAX density matrix=1.00D-06.
 Requested convergence on             energy=1.00D-06.
 No special actions if energy rises.
 Inv3:  Mode=1 IEnd=     1801875.
 Iteration    1 A*A^-1 deviation from unit magnitude is 2.44D-15 for    475.
 Iteration    1 A*A^-1 deviation from orthogonality  is 2.12D-15 for    226    171.
 Iteration    1 A^-1*A deviation from unit magnitude is 2.11D-15 for     91.
 Iteration    1 A^-1*A deviation from orthogonality  is 2.37D-15 for    593    226.
 Error on total polarization charges =  0.00917
 SCF Done:  E(RHF) =  -153.227475973     A.U. after   10 cycles
            NFock= 10  Conv=0.72D-08     -V/T= 2.0024
 SMD-CDS (non-electrostatic) energy       (kcal/mol) =      -1.42
 (included in total energy above)
 D1PCM: PCM CHGder 1st derivatives, ID1Alg=3 FixD1E=F DoIter=F DoCFld=F I1PDM=0.
 Calling FoFJK, ICntrl=      2127 FMM=F ISym2X=0 I1Cent= 0 IOpClX= 0 NMat=1 NMatS=1 NMatT=0.
 ***** Axes restored to original set *****
 -------------------------------------------------------------------
 Center     Atomic                   Forces (Hartrees/Bohr)
 Number     Number              X              Y              Z
 -------------------------------------------------------------------
      1        6           0.000818902    0.001174992    0.001170789
      2        1          -0.000385206    0.000402657   -0.000163671
      3        1          -0.000772781   -0.001097619   -0.000827994
      4        1           0.000503391   -0.000228178   -0.000177919
      5        6          -0.001205922   -0.001734270   -0.003676747
      6        1           0.000205094   -0.000482520    0.002377601
      7        1          -0.000524010    0.000049824    0.002375717
      8        8           0.001028421    0.001447476   -0.001332706
      9        1           0.000332110    0.000467638    0.000254930
 -------------------------------------------------------------------
 Cartesian Forces:  Max     0.003676747 RMS     0.001243296

 GradGradGradGradGradGradGradGradGradGradGradGradGradGradGradGradGradGrad
 Berny optimization.
 Using GEDIIS/GDIIS optimizer.
 FormGI is forming the generalized inverse of G from B-inverse, IUseBI=4.
 Internal  Forces:  Max     0.002253407 RMS     0.001026614
 Search for a local minimum.
 Step number   2 out of a maximum of   43
 All quantities printed in internal units (Hartrees-Bohrs-Radians)
 Mixed Optimization -- RFO/linear search
 Update second derivatives using D2CorX and points    1    2
 DE= -1.57D-03 DEPred=-1.81D-03 R= 8.69D-01
 TightC=F SS=  1.41D+00  RLast= 1.19D-01 DXNew= 5.0454D-01 3.5795D-01
 Trust test= 8.69D-01 RLast= 1.19D-01 DXMaxT set to 3.58D-01
 ITU=  1  0
 Use linear search instead of GDIIS.
     Eigenvalues ---    0.00237   0.01295   0.05412   0.05636   0.05647
     Eigenvalues ---    0.06104   0.11435   0.13481   0.15572   0.16000
     Eigenvalues ---    0.16000   0.16203   0.22713   0.28344   0.36957
     Eigenvalues ---    0.37230   0.37230   0.37230   0.37424   0.42632
     Eigenvalues ---    0.55186
 RFO step:  Lambda=-1.83255376D-04 EMin= 2.36824274D-03
 Quartic linear search produced a step of -0.09985.
 Iteration  1 RMS(Cart)=  0.00938790 RMS(Int)=  0.00010304
 Iteration  2 RMS(Cart)=  0.00008430 RMS(Int)=  0.00005783
 Iteration  3 RMS(Cart)=  0.00000000 RMS(Int)=  0.00005783
 Variable       Old X    -DE/DX   Delta X   Delta X   Delta X     New X
                                 (Linear)    (Quad)   (Total)
    R1        2.04727  -0.00051  -0.00252   0.00263   0.00011   2.04738
    R2        2.04906  -0.00005  -0.00270   0.00403   0.00132   2.05038
    R3        2.04726  -0.00051  -0.00252   0.00264   0.00012   2.04738
    R4        2.88311  -0.00019   0.00270  -0.00474  -0.00203   2.88108
    R5        2.05195  -0.00057  -0.00299   0.00320   0.00021   2.05217
    R6        2.05195  -0.00057  -0.00299   0.00321   0.00022   2.05217
    R7        2.73488  -0.00225  -0.00325   0.00005  -0.00320   2.73168
    R8        1.82693   0.00051  -0.00128   0.00279   0.00151   1.82844
    A1        1.90707  -0.00092   0.00036  -0.00420  -0.00386   1.90320
    A2        1.89883  -0.00030   0.00118  -0.00655  -0.00538   1.89345
    A3        1.91757  -0.00008  -0.00069  -0.00017  -0.00088   1.91669
    A4        1.90710  -0.00093   0.00035  -0.00421  -0.00388   1.90322
    A5        1.91577   0.00225  -0.00051   0.01497   0.01444   1.93021
    A6        1.91733  -0.00006  -0.00067  -0.00008  -0.00077   1.91657
    A7        1.90903   0.00164   0.00016   0.01492   0.01498   1.92401
    A8        1.90899   0.00165   0.00016   0.01499   0.01506   1.92404
    A9        1.85861   0.00098   0.00519  -0.00465   0.00057   1.85918
   A10        1.88840  -0.00052   0.00222  -0.00395  -0.00198   1.88642
   A11        1.94920  -0.00179  -0.00385  -0.01004  -0.01388   1.93532
   A12        1.94916  -0.00179  -0.00385  -0.01001  -0.01385   1.93531
   A13        1.93177  -0.00060  -0.00206  -0.00020  -0.00226   1.92951
    D1        3.12904   0.00089   0.00106   0.01153   0.01266  -3.14148
    D2        1.06370  -0.00042  -0.00184  -0.00131  -0.00321   1.06049
    D3       -1.04519   0.00023  -0.00039   0.00508   0.00469  -1.04050
    D4        1.03155   0.00066   0.00137   0.00744   0.00887   1.04042
    D5       -1.03380  -0.00065  -0.00153  -0.00540  -0.00700  -1.04079
    D6        3.14050   0.00000  -0.00008   0.00098   0.00090   3.14140
    D7       -1.06583   0.00043   0.00167   0.00331   0.00503  -1.06080
    D8       -3.13118  -0.00088  -0.00123  -0.00953  -0.01084   3.14117
    D9        1.04312  -0.00023   0.00021  -0.00315  -0.00294   1.04018
   D10        3.14149   0.00000   0.00001   0.00000   0.00001   3.14150
   D11       -1.05870   0.00160   0.00115   0.00958   0.01071  -1.04800
   D12        1.05857  -0.00160  -0.00114  -0.00968  -0.01079   1.04778
         Item               Value     Threshold  Converged?
 Maximum Force            0.002253     0.000450     NO 
 RMS     Force            0.001027     0.000300     NO 
 Maximum Displacement     0.028269     0.001800     NO 
 RMS     Displacement     0.009375     0.001200     NO 
 Predicted change in Energy=-1.108551D-04
 GradGradGradGradGradGradGradGradGradGradGradGradGradGradGradGradGradGrad

                          Input orientation:                          
 ---------------------------------------------------------------------
 Center     Atomic      Atomic             Coordinates (Angstroms)
 Number     Number       Type             X           Y           Z
 ---------------------------------------------------------------------
      1          6           0       -1.073731   -0.050883    0.018612
      2          1           0       -0.722234   -1.075648    0.029372
      3          1           0       -0.731342    0.431335   -0.891055
      4          1           0       -2.157082   -0.059172    0.028173
      5          6           0       -0.551791    0.687523    1.246106
      6          1           0       -0.900371    1.716010    1.242207
      7          1           0        0.534100    0.699619    1.243716
      8          8           0       -1.056700   -0.023369    2.399058
      9          1           0       -0.757892    0.399394    3.216478
 ---------------------------------------------------------------------
                    Distance matrix (angstroms):
                    1          2          3          4          5
     1  C    0.000000
     2  H    1.083425   0.000000
     3  H    1.085015   1.765862   0.000000
     4  H    1.083425   1.758412   1.765874   0.000000
     5  C    1.524601   2.149015   2.159937   2.148924   0.000000
     6  H    2.156189   3.048943   2.495950   2.490878   1.085959
     7  H    2.156214   2.490900   2.496111   3.048897   1.085962
     8  O    2.380666   2.614301   3.337283   2.614043   1.445544
     9  H    3.244819   3.512074   4.107743   3.511881   2.001964
                    6          7          8          9
     6  H    0.000000
     7  H    1.758056   0.000000
     8  O    2.094799   2.094797   0.000000
     9  H    2.377293   2.377218   0.967569   0.000000
 Stoichiometry    C2H6O
 Framework group  C1[X(C2H6O)]
 Deg. of freedom    21
 Full point group                 C1      NOp   1
 Largest Abelian subgroup         C1      NOp   1
 Largest concise Abelian subgroup C1      NOp   1
                         Standard orientation:                         
 ---------------------------------------------------------------------
 Center     Atomic      Atomic             Coordinates (Angstroms)
 Number     Number       Type             X           Y           Z
 ---------------------------------------------------------------------
      1          6           0        1.221985   -0.232596    0.000007
      2          1           0        1.264111   -0.864199    0.879275
      3          1           0        2.079866    0.431708   -0.000178
      4          1           0        1.263852   -0.864388   -0.879137
      5          6           0       -0.075798    0.567509    0.000001
      6          1           0       -0.125151    1.203254   -0.879032
      7          1           0       -0.125189    1.203270    0.879024
      8          8           0       -1.153038   -0.396418   -0.000009
      9          1           0       -2.010310    0.052219    0.000067
 ---------------------------------------------------------------------
 Rotational constants (GHZ):     34.4681783      9.3583868      8.0946346
 Standard basis: 3-21G (6D, 7F)
 There are    39 symmetry adapted cartesian basis functions of A   symmetry.
 There are    39 symmetry adapted basis functions of A   symmetry.
    39 basis functions,    63 primitive gaussians,    39 cartesian basis functions
    13 alpha electrons       13 beta electrons
       nuclear repulsion energy        81.5029830047 Hartrees.
 NAtoms=    9 NActive=    9 NUniq=    9 SFac= 1.00D+00 NAtFMM=   60 NAOKFM=F Big=F
 Integral buffers will be    262144 words long.
 Raffenetti 1 integral format.
 Two-electron integral symmetry is turned on.
 ------------------------------------------------------------------------------
 Polarizable Continuum Model (PCM)
 =================================
 Model                : PCM (using non-symmetric T matrix).
 Atomic radii         : SMD-Coulomb.
 Polarization charges : Total charges.
 Charge compensation  : None.
 Solution method      : On-the-fly selection.
 Cavity type          : VdW (van der Waals Surface) (Alpha=1.000).
 Cavity algorithm     : GePol (No added spheres)
                        Default sphere list used, NSphG=    9.
                        Lebedev-Laikov grids with approx.  5.0 points / Ang**2.
                        Smoothing algorithm: Karplus/York (Gamma=1.0000).
                        Polarization charges: spherical gaussians, with
                                              point-specific exponents (IZeta= 3).
                        Self-potential: point-specific (ISelfS= 7).
                        Self-field    : sphere-specific E.n sum rule (ISelfD= 2).
 1st derivatives      : Analytical E(r).r(x)/FMM algorithm (CHGder, D1EAlg=3).
                        Cavity 1st derivative terms included.
 Solvent              : Toluene, Eps=   2.374100 Eps(inf)=   2.238315
 ------------------------------------------------------------------------------
 Spheres list:
 ISph  on   Nord     Re0    Alpha      Xe            Ye            Ze
    1   C      1    1.8500  1.000      1.221985     -0.232596      0.000007
    2   H      2    1.2000  1.000      1.264111     -0.864199      0.879275
    3   H      3    1.2000  1.000      2.079866      0.431708     -0.000178
    4   H      4    1.2000  1.000      1.263852     -0.864388     -0.879137
    5   C      5    1.8500  1.000     -0.075798      0.567509      0.000001
    6   H      6    1.2000  1.000     -0.125151      1.203254     -0.879032
    7   H      7    1.2000  1.000     -0.125189      1.203270      0.879024
    8   O      8    2.2940  1.000     -1.153038     -0.396418     -0.000009
    9   H      9    1.2000  1.000     -2.010310      0.052219      0.000067
 ------------------------------------------------------------------------------
 ------------------------------------------------------------------------------
 Atomic radii for non-electrostatic terms: SMD-CDS.
 ------------------------------------------------------------------------------
 Nuclear repulsion after PCM non-electrostatic terms =       81.5007067675 Hartrees.
 One-electron integrals computed using PRISM.
 NBasis=    39 RedAO= T EigKep=  1.62D-02  NBF=    39
 NBsUse=    39 1.00D-06 EigRej= -1.00D+00 NBFU=    39
 Initial guess from the checkpoint file:  "C:\Grég_ethanol\ethanol_connectivity_with_solvent.chk"
 B after Tr=     0.000000    0.000000    0.000000
         Rot=    0.999999   -0.000090    0.000025   -0.001633 Ang=  -0.19 deg.
 ExpMin= 1.83D-01 ExpMax= 3.22D+02 ExpMxC= 3.22D+02 IAcc=1 IRadAn=         1 AccDes= 0.00D+00
 Harris functional with IExCor=  205 and IRadAn=       1 diagonalized for initial guess.
 HarFok:  IExCor=  205 AccDes= 0.00D+00 IRadAn=         1 IDoV= 1 UseB2=F ITyADJ=14
 ICtDFT=  3500011 ScaDFX=  1.000000  1.000000  1.000000  1.000000
 FoFCou: FMM=F IPFlag=           0 FMFlag=      100000 FMFlg1=           0
         NFxFlg=           0 DoJE=T BraDBF=F KetDBF=T FulRan=T
         wScrn=  0.000000 ICntrl=     500 IOpCl=  0 I1Cent=   200000004 NGrid=           0
         NMat0=    1 NMatS0=      1 NMatT0=    0 NMatD0=    1 NMtDS0=    0 NMtDT0=    0
 Petite list used in FoFCou.
 Keep R1 ints in memory in canonical form, NReq=3865956.
 Requested convergence on RMS density matrix=1.00D-08 within 128 cycles.
 Requested convergence on MAX density matrix=1.00D-06.
 Requested convergence on             energy=1.00D-06.
 No special actions if energy rises.
 Inv3:  Mode=1 IEnd=     1792587.
 Iteration    1 A*A^-1 deviation from unit magnitude is 2.22D-15 for    660.
 Iteration    1 A*A^-1 deviation from orthogonality  is 9.13D-16 for    256    225.
 Iteration    1 A^-1*A deviation from unit magnitude is 1.89D-15 for    262.
 Iteration    1 A^-1*A deviation from orthogonality  is 1.66D-15 for    590    225.
 Error on total polarization charges =  0.00918
 SCF Done:  E(RHF) =  -153.227578821     A.U. after    9 cycles
            NFock=  9  Conv=0.31D-08     -V/T= 2.0024
 SMD-CDS (non-electrostatic) energy       (kcal/mol) =      -1.43
 (included in total energy above)
 D1PCM: PCM CHGder 1st derivatives, ID1Alg=3 FixD1E=F DoIter=F DoCFld=F I1PDM=0.
 Calling FoFJK, ICntrl=      2127 FMM=F ISym2X=0 I1Cent= 0 IOpClX= 0 NMat=1 NMatS=1 NMatT=0.
 ***** Axes restored to original set *****
 -------------------------------------------------------------------
 Center     Atomic                   Forces (Hartrees/Bohr)
 Number     Number              X              Y              Z
 -------------------------------------------------------------------
      1        6           0.000438484    0.000628694    0.000126655
      2        1          -0.000060859    0.000410022    0.000113950
      3        1          -0.000289037   -0.000406325    0.000482795
      4        1           0.000405687    0.000075190    0.000105093
      5        6           0.000246076    0.000334937   -0.000730534
      6        1           0.000156952   -0.000571682   -0.000245190
      7        1          -0.000592511   -0.000041206   -0.000247846
      8        8          -0.000263927   -0.000372107    0.000813319
      9        1          -0.000040865   -0.000057523   -0.000418242
 -------------------------------------------------------------------
 Cartesian Forces:  Max     0.000813319 RMS     0.000386489

 GradGradGradGradGradGradGradGradGradGradGradGradGradGradGradGradGradGrad
 Berny optimization.
 Using GEDIIS/GDIIS optimizer.
 FormGI is forming the generalized inverse of G from B-inverse, IUseBI=4.
 Internal  Forces:  Max     0.001188064 RMS     0.000345639
 Search for a local minimum.
 Step number   3 out of a maximum of   43
 All quantities printed in internal units (Hartrees-Bohrs-Radians)
 Mixed Optimization -- En-DIIS/RFO-DIIS
 Update second derivatives using D2CorX and points    1    2    3
 DE= -1.03D-04 DEPred=-1.11D-04 R= 9.28D-01
 TightC=F SS=  1.41D+00  RLast= 4.28D-02 DXNew= 6.0200D-01 1.2854D-01
 Trust test= 9.28D-01 RLast= 4.28D-02 DXMaxT set to 3.58D-01
 ITU=  1  1  0
 Use linear search instead of GDIIS.
     Eigenvalues ---    0.00237   0.01295   0.05376   0.05550   0.05556
     Eigenvalues ---    0.06022   0.12133   0.13502   0.14948   0.16000
     Eigenvalues ---    0.16015   0.16141   0.22587   0.28772   0.37226
     Eigenvalues ---    0.37230   0.37230   0.37280   0.38187   0.43725
     Eigenvalues ---    0.55640
 RFO step:  Lambda=-1.14698305D-05 EMin= 2.36829013D-03
 Quartic linear search produced a step of -0.05847.
 Iteration  1 RMS(Cart)=  0.00180057 RMS(Int)=  0.00000393
 Iteration  2 RMS(Cart)=  0.00000117 RMS(Int)=  0.00000380
 Iteration  3 RMS(Cart)=  0.00000000 RMS(Int)=  0.00000380
 Variable       Old X    -DE/DX   Delta X   Delta X   Delta X     New X
                                 (Linear)    (Quad)   (Total)
    R1        2.04738  -0.00041  -0.00001  -0.00103  -0.00104   2.04634
    R2        2.05038  -0.00067  -0.00008  -0.00153  -0.00161   2.04877
    R3        2.04738  -0.00041  -0.00001  -0.00103  -0.00104   2.04634
    R4        2.88108  -0.00119   0.00012  -0.00410  -0.00398   2.87710
    R5        2.05217  -0.00059  -0.00001  -0.00148  -0.00149   2.05068
    R6        2.05217  -0.00059  -0.00001  -0.00148  -0.00149   2.05068
    R7        2.73168   0.00066   0.00019   0.00111   0.00130   2.73298
    R8        1.82844  -0.00040  -0.00009  -0.00051  -0.00060   1.82784
    A1        1.90320  -0.00001   0.00023  -0.00029  -0.00006   1.90314
    A2        1.89345   0.00015   0.00031  -0.00016   0.00015   1.89360
    A3        1.91669  -0.00020   0.00005  -0.00140  -0.00135   1.91534
    A4        1.90322  -0.00001   0.00023  -0.00031  -0.00008   1.90315
    A5        1.93021   0.00027  -0.00084   0.00338   0.00254   1.93275
    A6        1.91657  -0.00019   0.00004  -0.00128  -0.00124   1.91533
    A7        1.92401  -0.00018  -0.00088   0.00001  -0.00086   1.92315
    A8        1.92404  -0.00018  -0.00088   0.00001  -0.00087   1.92318
    A9        1.85918  -0.00006  -0.00003  -0.00015  -0.00018   1.85899
   A10        1.88642   0.00009   0.00012   0.00012   0.00026   1.88668
   A11        1.93532   0.00016   0.00081  -0.00001   0.00081   1.93612
   A12        1.93531   0.00017   0.00081   0.00000   0.00082   1.93613
   A13        1.92951  -0.00026   0.00013  -0.00177  -0.00164   1.92788
    D1       -3.14148  -0.00003  -0.00074   0.00112   0.00038  -3.14110
    D2        1.06049   0.00009   0.00019   0.00096   0.00115   1.06163
    D3       -1.04050   0.00003  -0.00027   0.00103   0.00076  -1.03974
    D4        1.04042  -0.00006  -0.00052   0.00023  -0.00029   1.04013
    D5       -1.04079   0.00006   0.00041   0.00006   0.00047  -1.04032
    D6        3.14140   0.00000  -0.00005   0.00014   0.00009   3.14149
    D7       -1.06080  -0.00009  -0.00029  -0.00072  -0.00102  -1.06182
    D8        3.14117   0.00003   0.00063  -0.00089  -0.00025   3.14092
    D9        1.04018  -0.00003   0.00017  -0.00081  -0.00064   1.03954
   D10        3.14150   0.00000   0.00000   0.00002   0.00002   3.14152
   D11       -1.04800  -0.00016  -0.00063  -0.00006  -0.00068  -1.04868
   D12        1.04778   0.00016   0.00063   0.00009   0.00072   1.04850
         Item               Value     Threshold  Converged?
 Maximum Force            0.001188     0.000450     NO 
 RMS     Force            0.000346     0.000300     NO 
 Maximum Displacement     0.003959     0.001800     NO 
 RMS     Displacement     0.001801     0.001200     NO 
 Predicted change in Energy=-6.130131D-06
 GradGradGradGradGradGradGradGradGradGradGradGradGradGradGradGradGradGrad

                          Input orientation:                          
 ---------------------------------------------------------------------
 Center     Atomic      Atomic             Coordinates (Angstroms)
 Number     Number       Type             X           Y           Z
 ---------------------------------------------------------------------
      1          6           0       -1.072896   -0.049671    0.019356
      2          1           0       -0.721493   -1.073872    0.031467
      3          1           0       -0.731832    0.430570   -0.890839
      4          1           0       -2.155688   -0.057848    0.030136
      5          6           0       -0.551976    0.687271    1.245548
      6          1           0       -0.900454    1.714958    1.240949
      7          1           0        0.533126    0.699231    1.242411
      8          8           0       -1.057509   -0.024565    2.398507
      9          1           0       -0.758323    0.398737    3.215132
 ---------------------------------------------------------------------
                    Distance matrix (angstroms):
                    1          2          3          4          5
     1  C    0.000000
     2  H    1.082875   0.000000
     3  H    1.084164   1.764681   0.000000
     4  H    1.082877   1.757618   1.764685   0.000000
     5  C    1.522493   2.145774   2.159257   2.145767   0.000000
     6  H    2.153124   3.045069   2.494516   2.486870   1.085172
     7  H    2.153143   2.486834   2.494605   3.045078   1.085173
     8  O    2.379334   2.610905   3.336617   2.610802   1.446233
     9  H    3.242378   3.507941   4.106180   3.507891   2.001273
                    6          7          8          9
     6  H    0.000000
     7  H    1.756944   0.000000
     8  O    2.095363   2.095367   0.000000
     9  H    2.376980   2.376924   0.967251   0.000000
 Stoichiometry    C2H6O
 Framework group  C1[X(C2H6O)]
 Deg. of freedom    21
 Full point group                 C1      NOp   1
 Largest Abelian subgroup         C1      NOp   1
 Largest concise Abelian subgroup C1      NOp   1
                         Standard orientation:                         
 ---------------------------------------------------------------------
 Center     Atomic      Atomic             Coordinates (Angstroms)
 Number     Number       Type             X           Y           Z
 ---------------------------------------------------------------------
      1          6           0        1.220642   -0.232900    0.000005
      2          1           0        1.260406   -0.864282    0.878864
      3          1           0        2.080256    0.427762   -0.000095
      4          1           0        1.260311   -0.864430   -0.878754
      5          6           0       -0.074474    0.567513   -0.000002
      6          1           0       -0.122094    1.202809   -0.878484
      7          1           0       -0.122119    1.202834    0.878460
      8          8           0       -1.153102   -0.395893   -0.000007
      9          1           0       -2.008949    0.054774    0.000054
 ---------------------------------------------------------------------
 Rotational constants (GHZ):     34.4993930      9.3699395      8.1041227
 Standard basis: 3-21G (6D, 7F)
 There are    39 symmetry adapted cartesian basis functions of A   symmetry.
 There are    39 symmetry adapted basis functions of A   symmetry.
    39 basis functions,    63 primitive gaussians,    39 cartesian basis functions
    13 alpha electrons       13 beta electrons
       nuclear repulsion energy        81.5450304354 Hartrees.
 NAtoms=    9 NActive=    9 NUniq=    9 SFac= 1.00D+00 NAtFMM=   60 NAOKFM=F Big=F
 Integral buffers will be    262144 words long.
 Raffenetti 1 integral format.
 Two-electron integral symmetry is turned on.
 ------------------------------------------------------------------------------
 Polarizable Continuum Model (PCM)
 =================================
 Model                : PCM (using non-symmetric T matrix).
 Atomic radii         : SMD-Coulomb.
 Polarization charges : Total charges.
 Charge compensation  : None.
 Solution method      : On-the-fly selection.
 Cavity type          : VdW (van der Waals Surface) (Alpha=1.000).
 Cavity algorithm     : GePol (No added spheres)
                        Default sphere list used, NSphG=    9.
                        Lebedev-Laikov grids with approx.  5.0 points / Ang**2.
                        Smoothing algorithm: Karplus/York (Gamma=1.0000).
                        Polarization charges: spherical gaussians, with
                                              point-specific exponents (IZeta= 3).
                        Self-potential: point-specific (ISelfS= 7).
                        Self-field    : sphere-specific E.n sum rule (ISelfD= 2).
 1st derivatives      : Analytical E(r).r(x)/FMM algorithm (CHGder, D1EAlg=3).
                        Cavity 1st derivative terms included.
 Solvent              : Toluene, Eps=   2.374100 Eps(inf)=   2.238315
 ------------------------------------------------------------------------------
 Spheres list:
 ISph  on   Nord     Re0    Alpha      Xe            Ye            Ze
    1   C      1    1.8500  1.000      1.220642     -0.232900      0.000005
    2   H      2    1.2000  1.000      1.260406     -0.864282      0.878864
    3   H      3    1.2000  1.000      2.080256      0.427762     -0.000095
    4   H      4    1.2000  1.000      1.260311     -0.864430     -0.878754
    5   C      5    1.8500  1.000     -0.074474      0.567513     -0.000002
    6   H      6    1.2000  1.000     -0.122094      1.202809     -0.878484
    7   H      7    1.2000  1.000     -0.122119      1.202834      0.878460
    8   O      8    2.2940  1.000     -1.153102     -0.395893     -0.000007
    9   H      9    1.2000  1.000     -2.008949      0.054774      0.000054
 ------------------------------------------------------------------------------
 ------------------------------------------------------------------------------
 Atomic radii for non-electrostatic terms: SMD-CDS.
 ------------------------------------------------------------------------------
 Nuclear repulsion after PCM non-electrostatic terms =       81.5427518800 Hartrees.
 One-electron integrals computed using PRISM.
 NBasis=    39 RedAO= T EigKep=  1.61D-02  NBF=    39
 NBsUse=    39 1.00D-06 EigRej= -1.00D+00 NBFU=    39
 Initial guess from the checkpoint file:  "C:\Grég_ethanol\ethanol_connectivity_with_solvent.chk"
 B after Tr=     0.000000    0.000000    0.000000
         Rot=    1.000000   -0.000002    0.000004    0.000521 Ang=  -0.06 deg.
 Keep R1 ints in memory in canonical form, NReq=3865956.
 Requested convergence on RMS density matrix=1.00D-08 within 128 cycles.
 Requested convergence on MAX density matrix=1.00D-06.
 Requested convergence on             energy=1.00D-06.
 No special actions if energy rises.
 Inv3:  Mode=1 IEnd=     1792587.
 Iteration    1 A*A^-1 deviation from unit magnitude is 1.67D-15 for    399.
 Iteration    1 A*A^-1 deviation from orthogonality  is 1.55D-15 for    304     37.
 Iteration    1 A^-1*A deviation from unit magnitude is 2.11D-15 for     79.
 Iteration    1 A^-1*A deviation from orthogonality  is 4.24D-15 for    591    226.
 Error on total polarization charges =  0.00916
 SCF Done:  E(RHF) =  -153.227585229     A.U. after    8 cycles
            NFock=  8  Conv=0.58D-08     -V/T= 2.0023
 SMD-CDS (non-electrostatic) energy       (kcal/mol) =      -1.43
 (included in total energy above)
 D1PCM: PCM CHGder 1st derivatives, ID1Alg=3 FixD1E=F DoIter=F DoCFld=F I1PDM=0.
 Calling FoFJK, ICntrl=      2127 FMM=F ISym2X=0 I1Cent= 0 IOpClX= 0 NMat=1 NMatS=1 NMatT=0.
 ***** Axes restored to original set *****
 -------------------------------------------------------------------
 Center     Atomic                   Forces (Hartrees/Bohr)
 Number     Number              X              Y              Z
 -------------------------------------------------------------------
      1        6          -0.000046451   -0.000067059   -0.000014800
      2        1          -0.000032210   -0.000048874   -0.000037366
      3        1          -0.000018852   -0.000026751    0.000096388
      4        1          -0.000033693   -0.000045700   -0.000037427
      5        6           0.000219669    0.000313878   -0.000248589
      6        1           0.000002883   -0.000036741    0.000034136
      7        1          -0.000036663   -0.000010515    0.000031897
      8        8          -0.000047555   -0.000068759    0.000204591
      9        1          -0.000007128   -0.000009479   -0.000028830
 -------------------------------------------------------------------
 Cartesian Forces:  Max     0.000313878 RMS     0.000103649

 GradGradGradGradGradGradGradGradGradGradGradGradGradGradGradGradGradGrad
 Berny optimization.
 Using GEDIIS/GDIIS optimizer.
 FormGI is forming the generalized inverse of G from B-inverse, IUseBI=4.
 Internal  Forces:  Max     0.000221265 RMS     0.000061068
 Search for a local minimum.
 Step number   4 out of a maximum of   43
 All quantities printed in internal units (Hartrees-Bohrs-Radians)
 Mixed Optimization -- En-DIIS/RFO-DIIS
 Swapping is turned off.
 Update second derivatives using D2CorX and points    1    2    3    4
 DE= -6.41D-06 DEPred=-6.13D-06 R= 1.05D+00
 TightC=F SS=  1.41D+00  RLast= 6.88D-03 DXNew= 6.0200D-01 2.0643D-02
 Trust test= 1.05D+00 RLast= 6.88D-03 DXMaxT set to 3.58D-01
 ITU=  1  1  1  0
     Eigenvalues ---    0.00237   0.01295   0.05380   0.05538   0.05644
     Eigenvalues ---    0.06019   0.11965   0.13500   0.15184   0.15959
     Eigenvalues ---    0.16000   0.17128   0.22648   0.30887   0.35445
     Eigenvalues ---    0.37230   0.37230   0.37240   0.37729   0.42606
     Eigenvalues ---    0.55292
 En-DIIS/RFO-DIIS IScMMF=        0 using points:     4    3
 RFO step:  Lambda=-2.34667905D-07.
 DidBck=F Rises=F RFO-DIIS coefs:    0.94450    0.05550
 Iteration  1 RMS(Cart)=  0.00028389 RMS(Int)=  0.00000008
 Iteration  2 RMS(Cart)=  0.00000008 RMS(Int)=  0.00000005
 Variable       Old X    -DE/DX   Delta X   Delta X   Delta X     New X
                                 (Linear)    (Quad)   (Total)
    R1        2.04634   0.00003   0.00006  -0.00002   0.00003   2.04637
    R2        2.04877  -0.00009   0.00009  -0.00038  -0.00029   2.04848
    R3        2.04634   0.00003   0.00006  -0.00003   0.00003   2.04637
    R4        2.87710   0.00012   0.00022   0.00001   0.00023   2.87733
    R5        2.05068  -0.00004   0.00008  -0.00024  -0.00015   2.05052
    R6        2.05068  -0.00004   0.00008  -0.00024  -0.00016   2.05052
    R7        2.73298   0.00022  -0.00007   0.00064   0.00057   2.73355
    R8        1.82784  -0.00004   0.00003  -0.00013  -0.00010   1.82774
    A1        1.90314  -0.00001   0.00000  -0.00013  -0.00013   1.90302
    A2        1.89360  -0.00007  -0.00001  -0.00021  -0.00022   1.89339
    A3        1.91534   0.00009   0.00007   0.00044   0.00052   1.91586
    A4        1.90315  -0.00001   0.00000  -0.00013  -0.00013   1.90302
    A5        1.93275  -0.00010  -0.00014  -0.00042  -0.00056   1.93219
    A6        1.91533   0.00009   0.00007   0.00045   0.00052   1.91585
    A7        1.92315   0.00005   0.00005   0.00029   0.00034   1.92349
    A8        1.92318   0.00005   0.00005   0.00026   0.00031   1.92348
    A9        1.85899  -0.00007   0.00001  -0.00039  -0.00038   1.85861
   A10        1.88668  -0.00001  -0.00001   0.00021   0.00019   1.88687
   A11        1.93612  -0.00001  -0.00004  -0.00018  -0.00022   1.93590
   A12        1.93613  -0.00001  -0.00005  -0.00018  -0.00023   1.93590
   A13        1.92788   0.00003   0.00009   0.00003   0.00013   1.92801
    D1       -3.14110   0.00001  -0.00002   0.00025   0.00023  -3.14087
    D2        1.06163  -0.00004  -0.00006  -0.00034  -0.00041   1.06123
    D3       -1.03974  -0.00001  -0.00004  -0.00003  -0.00008  -1.03982
    D4        1.04013   0.00002   0.00002   0.00040   0.00041   1.04054
    D5       -1.04032  -0.00002  -0.00003  -0.00020  -0.00023  -1.04055
    D6        3.14149   0.00000   0.00000   0.00011   0.00010  -3.14159
    D7       -1.06182   0.00004   0.00006   0.00054   0.00060  -1.06122
    D8        3.14092  -0.00001   0.00001  -0.00006  -0.00004   3.14088
    D9        1.03954   0.00001   0.00004   0.00025   0.00029   1.03983
   D10        3.14152   0.00000   0.00000   0.00000   0.00000   3.14152
   D11       -1.04868   0.00001   0.00004   0.00001   0.00005  -1.04863
   D12        1.04850  -0.00001  -0.00004   0.00003  -0.00001   1.04849
         Item               Value     Threshold  Converged?
 Maximum Force            0.000221     0.000450     YES
 RMS     Force            0.000061     0.000300     YES
 Maximum Displacement     0.000658     0.001800     YES
 RMS     Displacement     0.000284     0.001200     YES
 Predicted change in Energy=-2.421536D-07
 Optimization completed.
    -- Stationary point found.
                           ----------------------------
                           !   Optimized Parameters   !
                           ! (Angstroms and Degrees)  !
 --------------------------                            --------------------------
 ! Name  Definition              Value          Derivative Info.                !
 --------------------------------------------------------------------------------
 ! R1    R(1,2)                  1.0829         -DE/DX =    0.0                 !
 ! R2    R(1,3)                  1.0842         -DE/DX =   -0.0001              !
 ! R3    R(1,4)                  1.0829         -DE/DX =    0.0                 !
 ! R4    R(1,5)                  1.5225         -DE/DX =    0.0001              !
 ! R5    R(5,6)                  1.0852         -DE/DX =    0.0                 !
 ! R6    R(5,7)                  1.0852         -DE/DX =    0.0                 !
 ! R7    R(5,8)                  1.4462         -DE/DX =    0.0002              !
 ! R8    R(8,9)                  0.9673         -DE/DX =    0.0                 !
 ! A1    A(2,1,3)              109.0421         -DE/DX =    0.0                 !
 ! A2    A(2,1,4)              108.4955         -DE/DX =   -0.0001              !
 ! A3    A(2,1,5)              109.7411         -DE/DX =    0.0001              !
 ! A4    A(3,1,4)              109.0422         -DE/DX =    0.0                 !
 ! A5    A(3,1,5)              110.7386         -DE/DX =   -0.0001              !
 ! A6    A(4,1,5)              109.7404         -DE/DX =    0.0001              !
 ! A7    A(1,5,6)              110.1885         -DE/DX =    0.0                 !
 ! A8    A(1,5,7)              110.1899         -DE/DX =    0.0                 !
 ! A9    A(1,5,8)              106.5124         -DE/DX =   -0.0001              !
 ! A10   A(6,5,7)              108.0987         -DE/DX =    0.0                 !
 ! A11   A(6,5,8)              110.9317         -DE/DX =    0.0                 !
 ! A12   A(7,5,8)              110.9319         -DE/DX =    0.0                 !
 ! A13   A(5,8,9)              110.4594         -DE/DX =    0.0                 !
 ! D1    D(2,1,5,6)           -179.972          -DE/DX =    0.0                 !
 ! D2    D(2,1,5,7)             60.8271         -DE/DX =    0.0                 !
 ! D3    D(2,1,5,8)            -59.573          -DE/DX =    0.0                 !
 ! D4    D(3,1,5,6)             59.5951         -DE/DX =    0.0                 !
 ! D5    D(3,1,5,7)            -59.6058         -DE/DX =    0.0                 !
 ! D6    D(3,1,5,8)           -180.0059         -DE/DX =    0.0                 !
 ! D7    D(4,1,5,6)            -60.8376         -DE/DX =    0.0                 !
 ! D8    D(4,1,5,7)            179.9615         -DE/DX =    0.0                 !
 ! D9    D(4,1,5,8)             59.5614         -DE/DX =    0.0                 !
 ! D10   D(1,5,8,9)            179.9958         -DE/DX =    0.0                 !
 ! D11   D(6,5,8,9)            -60.085          -DE/DX =    0.0                 !
 ! D12   D(7,5,8,9)             60.0747         -DE/DX =    0.0                 !
 --------------------------------------------------------------------------------
 GradGradGradGradGradGradGradGradGradGradGradGradGradGradGradGradGradGrad

                          Input orientation:                          
 ---------------------------------------------------------------------
 Center     Atomic      Atomic             Coordinates (Angstroms)
 Number     Number       Type             X           Y           Z
 ---------------------------------------------------------------------
      1          6           0       -1.072896   -0.049671    0.019356
      2          1           0       -0.721493   -1.073872    0.031467
      3          1           0       -0.731832    0.430570   -0.890839
      4          1           0       -2.155688   -0.057848    0.030136
      5          6           0       -0.551976    0.687271    1.245548
      6          1           0       -0.900454    1.714958    1.240949
      7          1           0        0.533126    0.699231    1.242411
      8          8           0       -1.057509   -0.024565    2.398507
      9          1           0       -0.758323    0.398737    3.215132
 ---------------------------------------------------------------------
                    Distance matrix (angstroms):
                    1          2          3          4          5
     1  C    0.000000
     2  H    1.082875   0.000000
     3  H    1.084164   1.764681   0.000000
     4  H    1.082877   1.757618   1.764685   0.000000
     5  C    1.522493   2.145774   2.159257   2.145767   0.000000
     6  H    2.153124   3.045069   2.494516   2.486870   1.085172
     7  H    2.153143   2.486834   2.494605   3.045078   1.085173
     8  O    2.379334   2.610905   3.336617   2.610802   1.446233
     9  H    3.242378   3.507941   4.106180   3.507891   2.001273
                    6          7          8          9
     6  H    0.000000
     7  H    1.756944   0.000000
     8  O    2.095363   2.095367   0.000000
     9  H    2.376980   2.376924   0.967251   0.000000
 Stoichiometry    C2H6O
 Framework group  C1[X(C2H6O)]
 Deg. of freedom    21
 Full point group                 C1      NOp   1
 Largest Abelian subgroup         C1      NOp   1
 Largest concise Abelian subgroup C1      NOp   1
                         Standard orientation:                         
 ---------------------------------------------------------------------
 Center     Atomic      Atomic             Coordinates (Angstroms)
 Number     Number       Type             X           Y           Z
 ---------------------------------------------------------------------
      1          6           0        1.220642   -0.232900    0.000005
      2          1           0        1.260406   -0.864282    0.878864
      3          1           0        2.080256    0.427762   -0.000095
      4          1           0        1.260311   -0.864430   -0.878754
      5          6           0       -0.074474    0.567513   -0.000002
      6          1           0       -0.122094    1.202809   -0.878484
      7          1           0       -0.122119    1.202834    0.878460
      8          8           0       -1.153102   -0.395893   -0.000007
      9          1           0       -2.008949    0.054774    0.000054
 ---------------------------------------------------------------------
 Rotational constants (GHZ):     34.4993930      9.3699395      8.1041227

 **********************************************************************

            Population analysis using the SCF density.

 **********************************************************************

 Orbital symmetries:
       Occupied  (A) (A) (A) (A) (A) (A) (A) (A) (A) (A) (A) (A)
                 (A)
       Virtual   (A) (A) (A) (A) (A) (A) (A) (A) (A) (A) (A) (A)
                 (A) (A) (A) (A) (A) (A) (A) (A) (A) (A) (A) (A)
                 (A) (A)
 The electronic state is 1-A.
 Alpha  occ. eigenvalues --  -20.42932 -11.21157 -11.14727  -1.33074  -1.00905
 Alpha  occ. eigenvalues --   -0.83184  -0.67463  -0.63936  -0.54880  -0.52193
 Alpha  occ. eigenvalues --   -0.51614  -0.46737  -0.42492
 Alpha virt. eigenvalues --    0.26944   0.30624   0.34045   0.35134   0.36655
 Alpha virt. eigenvalues --    0.38704   0.42131   0.45271   0.92690   0.96875
 Alpha virt. eigenvalues --    0.97796   1.03338   1.07816   1.13451   1.27510
 Alpha virt. eigenvalues --    1.32266   1.34059   1.37570   1.37998   1.43074
 Alpha virt. eigenvalues --    1.89548   1.93284   2.00667   2.16625   2.34232
 Alpha virt. eigenvalues --    3.37871
          Condensed to atoms (all electrons):
               1          2          3          4          5          6
     1  C    5.404963   0.373545   0.360660   0.373543   0.240357  -0.050344
     2  H    0.373545   0.497814  -0.022995  -0.025592  -0.043513   0.003760
     3  H    0.360660  -0.022995   0.526172  -0.022995  -0.041899   0.000744
     4  H    0.373543  -0.025592  -0.022995   0.497809  -0.043514  -0.003922
     5  C    0.240357  -0.043513  -0.041899  -0.043514   5.074844   0.363250
     6  H   -0.050344   0.003760   0.000744  -0.003922   0.363250   0.576906
     7  H   -0.050339  -0.003923   0.000745   0.003760   0.363249  -0.045077
     8  O   -0.048431   0.002243   0.001531   0.002244   0.225471  -0.033980
     9  H    0.005221  -0.000090  -0.000140  -0.000090  -0.042843  -0.001985
               7          8          9
     1  C   -0.050339  -0.048431   0.005221
     2  H   -0.003923   0.002243  -0.000090
     3  H    0.000745   0.001531  -0.000140
     4  H    0.003760   0.002244  -0.000090
     5  C    0.363249   0.225471  -0.042843
     6  H   -0.045077  -0.033980  -0.001985
     7  H    0.576902  -0.033979  -0.001986
     8  O   -0.033979   8.310854   0.266103
     9  H   -0.001986   0.266103   0.396158
 Mulliken charges:
               1
     1  C   -0.609176
     2  H    0.218751
     3  H    0.198177
     4  H    0.218757
     5  C   -0.095402
     6  H    0.190648
     7  H    0.190648
     8  O   -0.692056
     9  H    0.379652
 Sum of Mulliken charges =   0.00000
 Mulliken charges with hydrogens summed into heavy atoms:
               1
     1  C    0.026509
     5  C    0.285894
     8  O   -0.312404
 Electronic spatial extent (au):  <R**2>=            193.7369
 Charge=              0.0000 electrons
 Dipole moment (field-independent basis, Debye):
    X=             -0.1823    Y=              2.0805    Z=              0.0001  Tot=              2.0885
 Quadrupole moment (field-independent basis, Debye-Ang):
   XX=            -16.6359   YY=            -20.5309   ZZ=            -19.9814
   XY=             -2.1851   XZ=             -0.0003   YZ=              0.0000
 Traceless Quadrupole moment (field-independent basis, Debye-Ang):
   XX=              2.4135   YY=             -1.4815   ZZ=             -0.9320
   XY=             -2.1851   XZ=             -0.0003   YZ=              0.0000
 Octapole moment (field-independent basis, Debye-Ang**2):
  XXX=            -17.3688  YYY=             -0.4490  ZZZ=              0.0002  XYY=             -0.8103
  XXY=              2.7543  XXZ=              0.0005  XZZ=             -1.7883  YZZ=             -0.4838
  YYZ=             -0.0001  XYZ=             -0.0001
 Hexadecapole moment (field-independent basis, Debye-Ang**3):
 XXXX=           -126.9415 YYYY=            -55.3944 ZZZZ=            -30.4412 XXXY=              0.1244
 XXXZ=             -0.0013 YYYX=              1.1105 YYYZ=              0.0003 ZZZX=              0.0001
 ZZZY=             -0.0001 XXYY=            -35.4118 XXZZ=            -31.5608 YYZZ=            -12.9428
 XXYZ=             -0.0002 YYXZ=             -0.0002 ZZXY=             -0.6308
 N-N= 8.154275187998D+01 E-N=-5.228482964319D+02  KE= 1.528745484377D+02
 1|1|UNPC-XIMOLAPTOP07|FOpt|RHF|3-21G|C2H6O1|LORINCZK|25-Oct-2025|0||# 
 opt freq hf/3-21g scrf=(smd,solvent=toluene) geom=connectivity||title 
 by user||0,1|C,-1.0728956878,-0.0496710005,0.0193556774|H,-0.721492703
 8,-1.0738715289,0.0314674388|H,-0.7318317819,0.4305698052,-0.890839307
 4|H,-2.1556876776,-0.0578478967,0.0301357203|C,-0.5519764875,0.6872705
 64,1.2455475459|H,-0.9004537756,1.7149578662,1.2409493118|H,0.53312602
 21,0.6992313791,1.2424107239|O,-1.0575091523,-0.0245654869,2.398507122
 |H,-0.7583229755,0.3987369584,3.2151320472||Version=IA32W-G09RevD.01|S
 tate=1-A|HF=-153.2275852|RMSD=5.824e-009|RMSF=1.036e-004|Dipole=0.4750
 653,0.6703941,0.0053502|Quadrupole=-0.7370305,-0.7766719,1.5137024,-0.
 0608159,1.0605141,1.4994919|PG=C01 [X(C2H6O1)]||@


 Money is a good servant but a bad master.
                        -- French Proverb
 Job cpu time:       0 days  0 hours  0 minutes 26.0 seconds.
 File lengths (MBytes):  RWF=     16 Int=      0 D2E=      0 Chk=      2 Scr=      1
 Normal termination of Gaussian 09 at Sat Oct 25 15:31:47 2025.
 Link1:  Proceeding to internal job step number  2.
 --------------------------------------------------------------
 #N Geom=AllCheck Guess=TCheck SCRF=Check GenChk RHF/3-21G Freq
 --------------------------------------------------------------
 1/10=4,29=7,30=1,38=1,40=1/1,3;
 2/12=2,40=1/2;
 3/5=5,11=1,14=-4,16=1,25=1,30=1,70=2,71=2,72=13,116=1,140=1/1,2,3;
 4/5=101/1;
 5/5=2,53=13,98=1/2;
 8/6=4,10=90,11=11/1;
 10/13=10,15=4/2;
 11/6=3,8=1,9=11,15=111,16=1/1,2,10;
 10/6=1/2;
 6/7=2,8=2,9=2,10=2,18=1,28=1/1;
 7/8=1,10=1,25=1/1,2,3,16;
 1/10=4,30=1/3;
[...]
 Rotational symmetry number  1.
 Rotational temperatures (Kelvin)      1.65571     0.44969     0.38894
 Rotational constants (GHZ):          34.49939     9.36994     8.10412
 Zero-point vibrational energy     223482.2 (Joules/Mol)
                                   53.41353 (Kcal/Mol)
 Warning -- explicit consideration of   3 degrees of freedom as
           vibrations may cause significant error
 Vibrational temperatures:    349.68   443.19   610.13  1317.67  1370.08
          (Kelvin)           1560.03  1718.41  1839.84  1967.98  2065.21
                             2254.91  2283.83  2371.78  2389.50  2446.61
                             4578.97  4614.68  4615.80  4703.28  4717.34
                             5538.48
 
 Zero-point correction=                           0.085120 (Hartree/Particle)
 Thermal correction to Energy=                    0.089326
 Thermal correction to Enthalpy=                  0.090270
 Thermal correction to Gibbs Free Energy=         0.059755
 Sum of electronic and zero-point Energies=           -153.142465
 Sum of electronic and thermal Energies=              -153.138259
 Sum of electronic and thermal Enthalpies=            -153.137315
 Sum of electronic and thermal Free Energies=         -153.167830
 
                     E (Thermal)             CV                S
                      KCal/Mol        Cal/Mol-Kelvin    Cal/Mol-Kelvin
 Total                   56.053             12.834             64.224
 Electronic               0.000              0.000              0.000
 Translational            0.889              2.981             37.406
 Rotational               0.889              2.981             22.333
 Vibrational             54.275              6.872              4.485
 Vibration     1          0.659              1.774              1.781
 Vibration     2          0.698              1.658              1.373
 Vibration     3          0.786              1.418              0.878
                       Q            Log10(Q)             Ln(Q)
 Total Bot       0.327027D-27        -27.485416        -63.287510
 Total V=0       0.464436D+12         11.666926         26.864089
 Vib (Bot)       0.157057D-38        -38.803943        -89.349380
 Vib (Bot)    1  0.805672D+00         -0.093842         -0.216079
 Vib (Bot)    2  0.614568D+00         -0.211430         -0.486836
 Vib (Bot)    3  0.412775D+00         -0.384286         -0.884852
 Vib (V=0)       0.223049D+01          0.348399          0.802219
 Vib (V=0)    1  0.144821D+01          0.160832          0.370330
 Vib (V=0)    2  0.129227D+01          0.111354          0.256401
 Vib (V=0)    3  0.114837D+01          0.060082          0.138343
 Electronic      0.100000D+01          0.000000          0.000000
 Translational   0.122796D+08          7.089185         16.323451
 Rotational      0.169567D+05          4.229342          9.738419
 ***** Axes restored to original set *****
 -------------------------------------------------------------------
 Center     Atomic                   Forces (Hartrees/Bohr)
 Number     Number              X              Y              Z
 -------------------------------------------------------------------
      1        6          -0.000046452   -0.000067060   -0.000014798
      2        1          -0.000032210   -0.000048873   -0.000037367
      3        1          -0.000018851   -0.000026750    0.000096389
      4        1          -0.000033692   -0.000045700   -0.000037427
      5        6           0.000219669    0.000313879   -0.000248595
      6        1           0.000002882   -0.000036740    0.000034136
      7        1          -0.000036662   -0.000010514    0.000031897
      8        8          -0.000047559   -0.000068766    0.000204593
      9        1          -0.000007126   -0.000009476   -0.000028827
 -------------------------------------------------------------------
 Cartesian Forces:  Max     0.000313879 RMS     0.000103650
 FormGI is forming the generalized inverse of G from B-inverse, IUseBI=4.

 GradGradGradGradGradGradGradGradGradGradGradGradGradGradGradGradGradGrad
 Berny optimization.
 Internal  Forces:  Max     0.000221270 RMS     0.000061068
 Search for a local minimum.
 Step number   1 out of a maximum of    2
 All quantities printed in internal units (Hartrees-Bohrs-Radians)
 Second derivative matrix not updated -- analytic derivatives used.
 ITU=  0
     Eigenvalues ---    0.00229   0.00329   0.05269   0.05418   0.05884
     Eigenvalues ---    0.07288   0.11899   0.14475   0.14862   0.15905
     Eigenvalues ---    0.18521   0.19974   0.27050   0.32266   0.35740
     Eigenvalues ---    0.36411   0.37277   0.37354   0.38410   0.41267
     Eigenvalues ---    0.53422
 Angle between quadratic step and forces=  38.08 degrees.
 Linear search not attempted -- first point.
 Iteration  1 RMS(Cart)=  0.00026898 RMS(Int)=  0.00000010
 Iteration  2 RMS(Cart)=  0.00000007 RMS(Int)=  0.00000007
 Variable       Old X    -DE/DX   Delta X   Delta X   Delta X     New X
                                 (Linear)    (Quad)   (Total)
    R1        2.04634   0.00003   0.00000   0.00006   0.00006   2.04639
    R2        2.04877  -0.00009   0.00000  -0.00019  -0.00019   2.04858
    R3        2.04634   0.00003   0.00000   0.00005   0.00005   2.04639
    R4        2.87710   0.00012   0.00000   0.00028   0.00028   2.87737
    R5        2.05068  -0.00004   0.00000  -0.00017  -0.00017   2.05051
    R6        2.05068  -0.00004   0.00000  -0.00017  -0.00017   2.05051
    R7        2.73298   0.00022   0.00000   0.00082   0.00082   2.73381
    R8        1.82784  -0.00004   0.00000  -0.00007  -0.00007   1.82777
    A1        1.90314  -0.00001   0.00000  -0.00009  -0.00009   1.90305
    A2        1.89360  -0.00007   0.00000  -0.00018  -0.00018   1.89342
    A3        1.91534   0.00009   0.00000   0.00045   0.00045   1.91579
    A4        1.90315  -0.00001   0.00000  -0.00009  -0.00009   1.90305
    A5        1.93275  -0.00010   0.00000  -0.00055  -0.00055   1.93220
    A6        1.91533   0.00009   0.00000   0.00046   0.00046   1.91580
    A7        1.92315   0.00005   0.00000   0.00033   0.00033   1.92348
    A8        1.92318   0.00005   0.00000   0.00031   0.00031   1.92348
    A9        1.85899  -0.00007   0.00000  -0.00034  -0.00034   1.85865
   A10        1.88668  -0.00001   0.00000   0.00037   0.00037   1.88704
   A11        1.93612  -0.00001   0.00000  -0.00033  -0.00033   1.93579
   A12        1.93613  -0.00001   0.00000  -0.00034  -0.00034   1.93579
   A13        1.92788   0.00003   0.00000   0.00000   0.00000   1.92788
    D1       -3.14110   0.00001   0.00000   0.00035   0.00035  -3.14075
    D2        1.06163  -0.00004   0.00000  -0.00050  -0.00050   1.06113
    D3       -1.03974  -0.00001   0.00000  -0.00007  -0.00007  -1.03981
    D4        1.04013   0.00002   0.00000   0.00052   0.00052   1.04065
    D5       -1.04032  -0.00002   0.00000  -0.00033  -0.00033  -1.04065
    D6        3.14149   0.00000   0.00000   0.00010   0.00010  -3.14159
    D7       -1.06182   0.00004   0.00000   0.00069   0.00069  -1.06113
    D8        3.14092  -0.00001   0.00000  -0.00017  -0.00017   3.14075
    D9        1.03954   0.00001   0.00000   0.00027   0.00027   1.03981
   D10        3.14152   0.00000   0.00000   0.00008   0.00008  -3.14159
   D11       -1.04868   0.00001   0.00000   0.00009   0.00009  -1.04859
   D12        1.04850  -0.00001   0.00000   0.00011   0.00011   1.04861
         Item               Value     Threshold  Converged?
 Maximum Force            0.000221     0.000450     YES
 RMS     Force            0.000061     0.000300     YES
 Maximum Displacement     0.000650     0.001800     YES
 RMS     Displacement     0.000269     0.001200     YES
 Predicted change in Energy=-2.645341D-07
 Optimization completed.
    -- Stationary point found.
                           ----------------------------
                           !   Optimized Parameters   !
                           ! (Angstroms and Degrees)  !
 --------------------------                            --------------------------
 ! Name  Definition              Value          Derivative Info.                !
 --------------------------------------------------------------------------------
 ! R1    R(1,2)                  1.0829         -DE/DX =    0.0                 !
 ! R2    R(1,3)                  1.0842         -DE/DX =   -0.0001              !
 ! R3    R(1,4)                  1.0829         -DE/DX =    0.0                 !
 ! R4    R(1,5)                  1.5225         -DE/DX =    0.0001              !
 ! R5    R(5,6)                  1.0852         -DE/DX =    0.0                 !
 ! R6    R(5,7)                  1.0852         -DE/DX =    0.0                 !
 ! R7    R(5,8)                  1.4462         -DE/DX =    0.0002              !
 ! R8    R(8,9)                  0.9673         -DE/DX =    0.0                 !
 ! A1    A(2,1,3)              109.0421         -DE/DX =    0.0                 !
 ! A2    A(2,1,4)              108.4955         -DE/DX =   -0.0001              !
 ! A3    A(2,1,5)              109.7411         -DE/DX =    0.0001              !
 ! A4    A(3,1,4)              109.0422         -DE/DX =    0.0                 !
 ! A5    A(3,1,5)              110.7386         -DE/DX =   -0.0001              !
 ! A6    A(4,1,5)              109.7404         -DE/DX =    0.0001              !
 ! A7    A(1,5,6)              110.1885         -DE/DX =    0.0                 !
 ! A8    A(1,5,7)              110.1899         -DE/DX =    0.0                 !
 ! A9    A(1,5,8)              106.5124         -DE/DX =   -0.0001              !
 ! A10   A(6,5,7)              108.0987         -DE/DX =    0.0                 !
 ! A11   A(6,5,8)              110.9317         -DE/DX =    0.0                 !
 ! A12   A(7,5,8)              110.9319         -DE/DX =    0.0                 !
 ! A13   A(5,8,9)              110.4594         -DE/DX =    0.0                 !
 ! D1    D(2,1,5,6)           -179.972          -DE/DX =    0.0                 !
 ! D2    D(2,1,5,7)             60.8271         -DE/DX =    0.0                 !
 ! D3    D(2,1,5,8)            -59.573          -DE/DX =    0.0                 !
 ! D4    D(3,1,5,6)             59.5951         -DE/DX =    0.0                 !
 ! D5    D(3,1,5,7)            -59.6058         -DE/DX =    0.0                 !
 ! D6    D(3,1,5,8)           -180.0059         -DE/DX =    0.0                 !
 ! D7    D(4,1,5,6)            -60.8376         -DE/DX =    0.0                 !
 ! D8    D(4,1,5,7)            179.9615         -DE/DX =    0.0                 !
 ! D9    D(4,1,5,8)             59.5614         -DE/DX =    0.0                 !
 ! D10   D(1,5,8,9)           -180.0042         -DE/DX =    0.0                 !
 ! D11   D(6,5,8,9)            -60.085          -DE/DX =    0.0                 !
 ! D12   D(7,5,8,9)             60.0747         -DE/DX =    0.0                 !
 --------------------------------------------------------------------------------
 GradGradGradGradGradGradGradGradGradGradGradGradGradGradGradGradGradGrad

 1|1|UNPC-XIMOLAPTOP07|Freq|RHF|3-21G|C2H6O1|LORINCZK|25-Oct-2025|0||#N
  Geom=AllCheck Guess=TCheck SCRF=Check GenChk RHF/3-21G Freq||title by
  user||0,1|C,-1.0728956878,-0.0496710005,0.0193556774|H,-0.7214927038,
 -1.0738715289,0.0314674388|H,-0.7318317819,0.4305698052,-0.8908393074|
 H,-2.1556876776,-0.0578478967,0.0301357203|C,-0.5519764875,0.687270564
 ,1.2455475459|H,-0.9004537756,1.7149578662,1.2409493118|H,0.5331260221
 ,0.6992313791,1.2424107239|O,-1.0575091523,-0.0245654869,2.398507122|H
 ,-0.7583229755,0.3987369584,3.2151320472||Version=IA32W-G09RevD.01|Sta
 te=1-A|HF=-153.2275852|RMSD=1.481e-009|RMSF=1.037e-004|ZeroPoint=0.085
 1199|Thermal=0.0893259|Dipole=0.4750652,0.670394,0.0053502|DipoleDeriv
 =0.0578468,-0.0246862,-0.068224,-0.0246575,0.0403655,-0.0964104,-0.040
 74,-0.057624,-0.0138098,0.0544113,0.0746708,-0.0109081,0.0601285,-0.13
 45645,-0.0271455,-0.0111935,0.0065325,0.0777815,0.0527626,-0.0414482,0
 .0712377,-0.0414798,0.0237659,0.1003012,0.0466658,0.0656191,-0.1080147
 ,-0.155924,-0.0138328,-0.0222639,0.0007485,0.0757791,-0.0192898,0.0095
 898,-0.008404,0.0777995,0.5285666,-0.0461629,-0.071094,-0.0462312,0.49
 58363,-0.1000786,-0.1210422,-0.1706116,0.7363345,-0.0089193,0.076536,0
 .0317968,0.060374,-0.2321684,0.0054584,0.0220743,-0.003671,-0.054333,-
 0.2504205,-0.0245395,-0.0056319,-0.0083973,0.0094157,0.0317374,-0.0110
 447,0.0195116,-0.0544033,-0.6395544,0.1034713,0.1580734,0.1034786,-0.5
 664137,0.2228712,0.1527231,0.2153435,-0.8561515,0.3612309,-0.1040085,-
 0.0829859,-0.1039637,0.2879841,-0.1174439,-0.0470325,-0.0666962,0.1947
 968|Polar=23.9301058,0.7910169,24.4868405,0.3300329,0.4734936,29.21457
 53|PolarDeriv=7.4043884,0.6206102,-3.7160705,0.5257847,0.0704529,-3.68
 02266,-0.4515274,-2.9575722,5.6574969,0.0701121,0.5557617,-5.1942317,-
 0.6093336,0.0108302,-0.6213278,-3.1039588,-4.3790519,1.649151,0.856623
 5,-3.1584614,1.6021291,-0.1431442,0.1859848,1.0103825,-0.5442056,1.822
 2403,-10.0078852,0.1011704,-0.8987552,-0.0839218,0.2236015,0.0225969,-
 0.0662285,1.5142414,-2.2329436,-0.5166365,0.849876,1.2520126,0.921477,
 -2.9947814,-0.2084445,1.5350358,0.4341099,1.5034336,2.0576446,-0.20888
 06,-3.1367593,2.1625448,-0.3381898,-0.1198175,-0.4182167,1.791567,2.52
 11905,-8.9499779,-10.692462,-0.7133862,-0.0760368,-0.9143664,-0.168880
 1,-0.4157159,-0.053349,-2.6147253,-1.1267173,-0.08319,-0.1371905,0.925
 0275,-0.0552942,-0.0747999,0.2079719,-2.6091008,0.6871296,-0.5256087,-
 7.7977404,-0.1336769,2.9822922,-0.288934,0.1293282,4.360617,-0.745203,
 3.4174427,-6.0479316,0.1257397,-0.1781835,6.1552352,1.6334328,-0.08887
 04,1.5883487,2.1056649,2.9701273,-0.0646255,-0.8313088,3.0440719,-1.59
 89417,0.0780246,-0.3330174,-0.9910449,0.7024249,-2.0714472,10.5400698,
 -0.1786235,0.0761347,0.1338424,0.1456626,0.0378109,-0.5236332,-1.31761
 87,2.9055055,-0.1341224,11.2796956,0.6714464,0.1322214,0.2460641,-0.12
 13439,0.4558712,0.3404666,2.4980286,1.0945379,-0.2750518,-0.08096,-0.8
 912276,-0.4673728,-0.1779525,0.0943199,3.1783623,-0.2803203,-0.1235692
 ,-1.8394082,-2.2540549,-0.355472,1.064218,0.3363394,-5.2675442,0.29788
 98,-2.1654889,-3.3943328,0.3423847,1.291551,-7.4396927,-0.5126744,0.30
 91589,-0.3002511,-2.6197385,-3.7010094,-2.9725303,0.770336,0.6714384,0
 .1084014,2.4271345,0.1095806,2.9926251,0.0193939,0.5680884,1.2271177,0
 .1063392,2.5084012,4.2324239,-0.0198321,0.0810435,0.0390168,1.0605812,
 1.5093723,11.6379195|HyperPolar=5.9011195,4.7006826,5.3813861,11.15912
 53,-11.594753,-6.0300178,-15.7739337,24.3599903,34.3842456,-12.8321832
 |PG=C01 [X(C2H6O1)]|NImag=0||0.63534171,-0.01975376,0.62135216,-0.0383
 2484,-0.05419903,0.56793096,-0.09099190,0.09095254,-0.00173625,0.09336
 525,0.08805080,-0.31087526,0.00319292,-0.09758632,0.34214156,-0.002442
 99,0.00823940,-0.05843312,0.00522961,-0.00311976,0.06000110,-0.0874841
 5,-0.04121951,0.07536777,0.00392005,0.00499487,-0.01249790,0.08927029,
 -0.04122366,-0.11626461,0.10612964,-0.01303233,-0.01468880,0.03175454,
 0.04639439,0.12166584,0.07255560,0.10215925,-0.25474853,-0.00108017,0.
 00013599,0.00095705,-0.08225952,-0.11581977,0.28070905,-0.34270663,-0.
 00043961,0.00323677,-0.01184890,0.00001232,0.00048446,-0.01016931,0.00
 005838,0.00047260,0.37585046,0.00246702,-0.05917034,-0.00057657,0.0381
 0619,0.00155172,-0.00096027,-0.01793966,-0.00064403,-0.00099486,0.0017
 1712,0.05966880,0.00822985,0.00042720,-0.05841608,-0.00111408,0.000136
 77,-0.00052395,0.03410415,-0.00125678,0.00100198,-0.00428878,0.0039016
 5,0.05998208,-0.11383572,-0.01975149,-0.02828804,0.00506149,0.00727333
 ,0.01143149,0.00351195,0.00847102,0.01299556,-0.01531823,-0.02459071,-
 0.03774322,0.64802845,-0.01976260,-0.12782126,-0.03999097,-0.01737780,
 -0.02143988,-0.03599500,0.00843747,0.00945738,0.01831829,0.00009547,-0
 .00101613,-0.00115497,-0.03251520,0.62520152,-0.03692148,-0.05217481,-
 0.14461010,-0.00102195,0.00108240,-0.00240359,-0.01212646,-0.01714318,
 -0.02188298,0.00134315,-0.00063700,-0.00244841,0.01024144,0.01422680,0
 .51705204,0.00524305,-0.01513477,-0.00159328,0.00006778,-0.00194452,-0
 .00229279,0.00028227,0.00071880,0.00064818,0.00104129,-0.00020455,0.00
 102730,-0.10050515,0.09100302,0.00018040,0.10010717,0.00726707,-0.0167
 0389,-0.00099038,-0.00148698,-0.00034744,-0.00308704,0.00028550,0.0005
 1767,-0.00079950,-0.00052039,0.00058574,0.00085380,0.08677630,-0.29663
 746,-0.00620096,-0.09333961,0.32920941,0.01203735,-0.03413712,-0.00065
 061,-0.00312909,-0.00326750,-0.00528972,0.00067859,0.00098864,0.000979
 83,0.00001505,0.00130151,0.00140187,-0.00118726,-0.00854455,-0.0622135
 2,-0.00290762,0.00052360,0.07265603,-0.01177982,0.00126667,-0.00042174
 ,0.00086066,-0.00058336,0.00046474,0.00017751,0.00024631,-0.00097051,0
 .00077713,-0.00123590,-0.00214282,-0.33066674,0.00588326,-0.00627883,-
 0.01362905,0.00211121,-0.00171491,0.36241226,-0.02116612,0.00036745,-0
 .00186040,-0.00026804,0.00076611,0.00125251,0.00068201,0.00062317,0.00
 034726,-0.00169499,-0.00105796,-0.00319278,0.01010587,-0.06646171,-0.0
 0186716,0.03878038,0.00074072,0.00067340,-0.00115157,0.06689358,-0.036
 19140,0.00003866,-0.00069595,0.00122255,0.00044581,0.00140282,0.000706
 35,0.00096871,0.00097784,-0.00203540,-0.00404055,-0.00528876,-0.008041
 88,-0.00394070,-0.06222806,0.00114409,-0.00138949,0.00308879,0.0018513
 4,-0.00256585,0.07266409,0.00713662,0.00550914,-0.01076911,-0.00022195
 ,-0.00020836,-0.00031388,-0.00026539,-0.00184698,-0.00311040,0.0020941
 2,0.00170245,0.00167407,-0.09935495,-0.04071080,0.02272568,0.00751030,
 -0.00156748,-0.00280582,-0.00827900,-0.02619058,0.04045817,0.15831284,
 0.00554810,0.01103227,-0.01526616,0.00088780,0.00262247,0.00166874,-0.
 00184684,-0.00157275,-0.00440080,0.00060712,0.00030522,0.00026150,-0.0
 4066518,-0.12782713,0.03191096,-0.02069299,-0.01797617,0.04186557,-0.0
 0709874,-0.00223554,0.01121384,0.15408736,0.26673432,0.01700635,0.0239
 3512,-0.04526717,0.00141567,0.00120149,0.00377351,-0.00314281,-0.00444
 760,-0.00695738,0.00066230,0.00174012,0.00377503,0.05649954,0.07957074
 ,-0.19053724,0.00488540,0.01108614,-0.01196107,0.00885007,0.00823921,-
 0.01191312,0.05897782,0.08401384,0.63518292,-0.00092317,-0.00142921,0.
 00252871,-0.00021248,-0.00000877,-0.00006275,0.00075678,0.00021408,0.0
 0074867,0.00028006,-0.00002197,0.00025353,0.00307891,0.00494717,0.0218
 5805,-0.00011766,0.00047439,-0.00098629,0.00012706,0.00090305,0.000886
 18,-0.06693259,-0.09082662,-0.14515433,0.06394309,-0.00142684,-0.00191
 652,0.00356096,-0.00019506,0.00026951,0.00024688,0.00021176,0.00090612
 ,0.00105414,0.00016457,-0.00022304,0.00002362,0.00489606,0.00654467,0.
 03080295,0.00081425,0.00061142,0.00059644,0.00056212,0.00036419,-0.000
 73042,-0.09077475,-0.13108268,-0.20533907,0.08574789,0.12452632,0.0040
 5156,0.00571133,-0.00510941,0.00021371,0.00019187,0.00051591,-0.000830
 19,-0.00117420,-0.00103688,0.00010986,0.00026598,0.00051626,-0.0159076
 2,-0.02248964,-0.03072814,-0.00109169,0.00000383,0.00198840,0.00036268
 ,-0.00102619,0.00199235,-0.10683654,-0.15126748,-0.37609549,0.11992824
 ,0.16978451,0.40795699||0.00004645,0.00006706,0.00001480,0.00003221,0.
 00004887,0.00003737,0.00001885,0.00002675,-0.00009639,0.00003369,0.000
 04570,0.00003743,-0.00021967,-0.00031388,0.00024859,-0.00000288,0.0000
 3674,-0.00003414,0.00003666,0.00001051,-0.00003190,0.00004756,0.000068
 77,-0.00020459,0.00000713,0.00000948,0.00002883|||@


 Money is a good servant but a bad master.
                        -- French Proverb
 Job cpu time:       0 days  0 hours  0 minutes 16.0 seconds.
 File lengths (MBytes):  RWF=     16 Int=      0 D2E=      0 Chk=      3 Scr=      1
 Normal termination of Gaussian 09 at Sat Oct 25 15:32:03 2025.
