 Entering Link 1 = C:\G09W\l1.exe PID=      5252.
  
 Copyright (c) 1988,1990,1992,1993,1995,1998,2003,2009,2013,
            Gaussian, Inc.  All Rights Reserved.
  
 This is part of the Gaussian(R) 09 program.  It is based on
 the Gaussian(R) 03 system (copyright 2003, Gaussian, Inc.),
 the Gaussian(R) 98 system (copyright 1998, Gaussian, Inc.),
 the Gaussian(R) 94 system (copyright 1995, Gaussian, Inc.),
 the Gaussian 92(TM) system (copyright 1992, Gaussian, Inc.),
 the Gaussian 90(TM) system (copyright 1990, Gaussian, Inc.),
 the Gaussian 88(TM) system (copyright 1988, Gaussian, Inc.),
 the Gaussian 86(TM) system (copyright 1986, Carnegie Mellon
 University), and the Gaussian 82(TM) system (copyright 1983,
 Carnegie Mellon University). Gaussian is a federally registered
 trademark of Gaussian, Inc.
  
 This software contains proprietary and confidential information,
 including trade secrets, belonging to Gaussian, Inc.
  
 This software is provided under written license and may be
 used, copied, transmitted, or stored only in accord with that
 written license.
  
 The following legend is applicable only to US Government
 contracts under FAR:
  
                    RESTRICTED RIGHTS LEGEND
  
 Use, reproduction and disclosure by the US Government is
 subject to restrictions as set forth in subparagraphs (a)
 and (c) of the Commercial Computer Software - Restricted
 Rights clause in FAR 52.227-19.
  
 Gaussian, Inc.
 340 Quinnipiac St., Bldg. 40, Wallingford CT 06492
  
  
 ---------------------------------------------------------------
 Warning -- This program may not be used in any manner that
 competes with the business of Gaussian, Inc. or will provide
 assistance to any competitor of Gaussian, Inc.  The licensee
 of this program is prohibited from giving any competitor of
 Gaussian, Inc. access to this program.  By using this program,
 the user acknowledges that Gaussian, Inc. is engaged in the
 business of creating and licensing software in the field of
 computational chemistry and represents and warrants to the
 licensee that it is not a competitor of Gaussian, Inc. and that
 it will not use this program in any manner prohibited above.
 ---------------------------------------------------------------
  

 Cite this work as:
 Gaussian 09, Revision D.01,
 M. J. Frisch, G. W. Trucks, H. B. Schlegel, G. E. Scuseria, 
 M. A. Robb, J. R. Cheeseman, G. Scalmani, V. Barone, B. Mennucci, 
 G. A. Petersson, H. Nakatsuji, M. Caricato, X. Li, H. P. Hratchian, 
 A. F. Izmaylov, J. Bloino, G. Zheng, J. L. Sonnenberg, M. Hada, 
 M. Ehara, K. Toyota, R. Fukuda, J. Hasegawa, M. Ishida, T. Nakajima, 
 Y. Honda, O. Kitao, H. Nakai, T. Vreven, J. A. Montgomery, Jr., 
 J. E. Peralta, F. Ogliaro, M. Bearpark, J. J. Heyd, E. Brothers, 
 K. N. Kudin, V. N. Staroverov, T. Keith, R. Kobayashi, J. Normand, 
 K. Raghavachari, A. Rendell, J. C. Burant, S. S. Iyengar, J. Tomasi, 
 M. Cossi, N. Rega, J. M. Millam, M. Klene, J. E. Knox, J. B. Cross, 
 V. Bakken, C. Adamo, J. Jaramillo, R. Gomperts, R. E. Stratmann, 
 O. Yazyev, A. J. Austin, R. Cammi, C. Pomelli, J. W. Ochterski, 
 R. L. Martin, K. Morokuma, V. G. Zakrzewski, G. A. Voth, 
 P. Salvador, J. J. Dannenberg, S. Dapprich, A. D. Daniels, 
 O. Farkas, J. B. Foresman, J. V. Ortiz, J. Cioslowski, 
 and D. J. Fox, Gaussian, Inc., Wallingford CT, 2013.
 
 ******************************************
 Gaussian 09:  IA32W-G09RevD.01 24-Apr-2013
                25-Oct-2025 
 ******************************************
 %nprocshared=3
 Will use up to    3 processors via shared memory.
 %mem=400MB
 %chk=C:\Grég_ethanol\ethanol_connectivity.chk
 -------------------------------------
 # opt freq hf/3-21g geom=connectivity
 -------------------------------------
 1/18=20,19=15,38=1,57=2/1,3;
 2/9=110,12=2,17=6,18=5,40=1/2;
 3/5=5,11=9,16=1,25=1,30=1,71=1/1,2,3;
 4//1;
 5/5=2,38=5/2;
 6/7=2,8=2,9=2,10=2,28=1/1;
 7//1,2,3,16;
 1/18=20,19=15/3(2);
 2/9=110/2;
 99//99;
 2/9=110/2;
 3/5=5,11=9,16=1,25=1,30=1,71=1/1,2,3;
 4/5=5,16=3,69=1/1;
 5/5=2,38=5/2;
 7//1,2,3,16;
 1/18=20,19=15/3(-5);
 2/9=110/2;
 6/7=2,8=2,9=2,10=2,19=2,28=1/1;
 99/9=1/99;
 -------------
 title by user
 -------------
 Symbolic Z-matrix:
 Charge =  0 Multiplicity = 1
 C                    -1.07824  -0.05725   0. 
 H                    -0.72159  -1.06606   0. 
 H                    -0.72157   0.44715  -0.87365 
 H                    -2.14824  -0.05724   0. 
 C                    -0.5649    0.6687    1.2574 
 H                    -0.91996   1.67808   1.25643 
 H                     0.5051    0.667     1.25838 
 O                    -1.04371  -0.00389   2.42499 
 H                    -0.72392   0.44833   3.20911 
 

 GradGradGradGradGradGradGradGradGradGradGradGradGradGradGradGradGradGrad
 Berny optimization.
 Initialization pass.
                           ----------------------------
                           !    Initial Parameters    !
                           ! (Angstroms and Degrees)  !
 --------------------------                            --------------------------
 ! Name  Definition              Value          Derivative Info.                !
 --------------------------------------------------------------------------------
 ! R1    R(1,2)                  1.07           estimate D2E/DX2                !
 ! R2    R(1,3)                  1.07           estimate D2E/DX2                !
 ! R3    R(1,4)                  1.07           estimate D2E/DX2                !
 ! R4    R(1,5)                  1.54           estimate D2E/DX2                !
 ! R5    R(5,6)                  1.07           estimate D2E/DX2                !
 ! R6    R(5,7)                  1.07           estimate D2E/DX2                !
 ! R7    R(5,8)                  1.43           estimate D2E/DX2                !
 ! R8    R(8,9)                  0.96           estimate D2E/DX2                !
 ! A1    A(2,1,3)              109.4712         estimate D2E/DX2                !
 ! A2    A(2,1,4)              109.4712         estimate D2E/DX2                !
 ! A3    A(2,1,5)              109.4712         estimate D2E/DX2                !
 ! A4    A(3,1,4)              109.4712         estimate D2E/DX2                !
 ! A5    A(3,1,5)              109.4713         estimate D2E/DX2                !
 ! A6    A(4,1,5)              109.4712         estimate D2E/DX2                !
 ! A7    A(1,5,6)              109.4712         estimate D2E/DX2                !
 ! A8    A(1,5,7)              109.4712         estimate D2E/DX2                !
 ! A9    A(1,5,8)              109.4712         estimate D2E/DX2                !
 ! A10   A(6,5,7)              109.4712         estimate D2E/DX2                !
 ! A11   A(6,5,8)              109.4713         estimate D2E/DX2                !
 ! A12   A(7,5,8)              109.4712         estimate D2E/DX2                !
 ! A13   A(5,8,9)              109.5            estimate D2E/DX2                !
 ! D1    D(2,1,5,6)            179.8889         estimate D2E/DX2                !
 ! D2    D(2,1,5,7)             59.8889         estimate D2E/DX2                !
 ! D3    D(2,1,5,8)            -60.1111         estimate D2E/DX2                !
 ! D4    D(3,1,5,6)             59.8889         estimate D2E/DX2                !
 ! D5    D(3,1,5,7)            -60.1111         estimate D2E/DX2                !
 ! D6    D(3,1,5,8)            179.8889         estimate D2E/DX2                !
 ! D7    D(4,1,5,6)            -60.1111         estimate D2E/DX2                !
 ! D8    D(4,1,5,7)            179.8889         estimate D2E/DX2                !
 ! D9    D(4,1,5,8)             59.8889         estimate D2E/DX2                !
 ! D10   D(1,5,8,9)            179.999          estimate D2E/DX2                !
 ! D11   D(6,5,8,9)            -60.0011         estimate D2E/DX2                !
 ! D12   D(7,5,8,9)             59.999          estimate D2E/DX2                !
 --------------------------------------------------------------------------------
 Trust Radius=3.00D-01 FncErr=1.00D-07 GrdErr=1.00D-07
 Number of steps in this run=     43 maximum allowed number of steps=    100.
 GradGradGradGradGradGradGradGradGradGradGradGradGradGradGradGradGradGrad

                          Input orientation:                          
 ---------------------------------------------------------------------
 Center     Atomic      Atomic             Coordinates (Angstroms)
 Number     Number       Type             X           Y           Z
 ---------------------------------------------------------------------
      1          6           0       -1.078244   -0.057252    0.000000
      2          1           0       -0.721590   -1.066062    0.000000
      3          1           0       -0.721571    0.447146   -0.873652
      4          1           0       -2.148244   -0.057239    0.000000
      5          6           0       -0.564902    0.668704    1.257405
      6          1           0       -0.919958    1.678077    1.256427
      7          1           0        0.505096    0.666998    1.258384
      8          8           0       -1.043710   -0.003888    2.424993
      9          1           0       -0.723920    0.448325    3.209109
 ---------------------------------------------------------------------
                    Distance matrix (angstroms):
                    1          2          3          4          5
     1  C    0.000000
     2  H    1.070000   0.000000
     3  H    1.070000   1.747302   0.000000
     4  H    1.070000   1.747303   1.747303   0.000000
     5  C    1.540000   2.148263   2.148263   2.148263   0.000000
     6  H    2.148263   3.024609   2.468154   2.469538   1.070000
     7  H    2.148263   2.468154   2.469539   3.024610   1.070000
     8  O    2.425826   2.666940   3.344886   2.665227   1.430000
     9  H    3.267955   3.548486   4.082761   3.547206   1.970533
                    6          7          8          9
     6  H    0.000000
     7  H    1.747303   0.000000
     8  O    2.051796   2.051796   0.000000
     9  H    2.315963   2.315950   0.960000   0.000000
 Stoichiometry    C2H6O
 Framework group  C1[X(C2H6O)]
 Deg. of freedom    21
 Full point group                 C1      NOp   1
 Largest Abelian subgroup         C1      NOp   1
 Largest concise Abelian subgroup C1      NOp   1
                         Standard orientation:                         
 ---------------------------------------------------------------------
 Center     Atomic      Atomic             Coordinates (Angstroms)
 Number     Number       Type             X           Y           Z
 ---------------------------------------------------------------------
      1          6           0        1.249922   -0.221655    0.000001
      2          1           0        1.310067   -0.835095    0.874629
      3          1           0        2.060234    0.477124   -0.001954
      4          1           0        1.308388   -0.838036   -0.872671
      5          6           0       -0.087029    0.542650   -0.000001
      6          1           0       -0.146332    1.157561   -0.873652
      7          1           0       -0.146334    1.157562    0.873650
      8          8           0       -1.169969   -0.391235   -0.000002
      9          1           0       -2.003632    0.084796    0.000013
 ---------------------------------------------------------------------
 Rotational constants (GHZ):     36.3552791      9.0935545      7.9810058
 Standard basis: 3-21G (6D, 7F)
 There are    39 symmetry adapted cartesian basis functions of A   symmetry.
 There are    39 symmetry adapted basis functions of A   symmetry.
    39 basis functions,    63 primitive gaussians,    39 cartesian basis functions
    13 alpha electrons       13 beta electrons
       nuclear repulsion energy        81.6946236945 Hartrees.
 NAtoms=    9 NActive=    9 NUniq=    9 SFac= 1.00D+00 NAtFMM=   60 NAOKFM=F Big=F
 Integral buffers will be    262144 words long.
 Raffenetti 1 integral format.
 Two-electron integral symmetry is turned on.
 One-electron integrals computed using PRISM.
 NBasis=    39 RedAO= T EigKep=  1.61D-02  NBF=    39
 NBsUse=    39 1.00D-06 EigRej= -1.00D+00 NBFU=    39
 ExpMin= 1.83D-01 ExpMax= 3.22D+02 ExpMxC= 3.22D+02 IAcc=1 IRadAn=         1 AccDes= 0.00D+00
 Harris functional with IExCor=  205 and IRadAn=       1 diagonalized for initial guess.
 HarFok:  IExCor=  205 AccDes= 0.00D+00 IRadAn=         1 IDoV= 1 UseB2=F ITyADJ=14
 ICtDFT=  3500011 ScaDFX=  1.000000  1.000000  1.000000  1.000000
 FoFCou: FMM=F IPFlag=           0 FMFlag=      100000 FMFlg1=           0
         NFxFlg=           0 DoJE=T BraDBF=F KetDBF=T FulRan=T
         wScrn=  0.000000 ICntrl=     500 IOpCl=  0 I1Cent=   200000004 NGrid=           0
         NMat0=    1 NMatS0=      1 NMatT0=    0 NMatD0=    1 NMtDS0=    0 NMtDT0=    0
 Petite list used in FoFCou.
 Keep R1 ints in memory in canonical form, NReq=1139664.
 Requested convergence on RMS density matrix=1.00D-08 within 128 cycles.
 Requested convergence on MAX density matrix=1.00D-06.
 Requested convergence on             energy=1.00D-06.
 No special actions if energy rises.
 SCF Done:  E(RHF) =  -153.220991309     A.U. after   10 cycles
            NFock= 10  Conv=0.88D-08     -V/T= 2.0015

 **********************************************************************

            Population analysis using the SCF density.

 **********************************************************************

 Orbital symmetries:
       Occupied  (A) (A) (A) (A) (A) (A) (A) (A) (A) (A) (A) (A)
                 (A)
       Virtual   (A) (A) (A) (A) (A) (A) (A) (A) (A) (A) (A) (A)
                 (A) (A) (A) (A) (A) (A) (A) (A) (A) (A) (A) (A)
                 (A) (A)
 The electronic state is 1-A.
 Alpha  occ. eigenvalues --  -20.43033 -11.21268 -11.14856  -1.34068  -1.01313
 Alpha  occ. eigenvalues --   -0.84155  -0.67999  -0.64962  -0.55626  -0.53095
 Alpha  occ. eigenvalues --   -0.52799  -0.46472  -0.42761
 Alpha virt. eigenvalues --    0.26361   0.30536   0.34202   0.35045   0.36394
 Alpha virt. eigenvalues --    0.38296   0.41777   0.45024   0.91548   0.95968
 Alpha virt. eigenvalues --    0.97969   1.02678   1.06896   1.12751   1.27493
 Alpha virt. eigenvalues --    1.32482   1.34936   1.38268   1.38940   1.44546
 Alpha virt. eigenvalues --    1.89373   1.93253   2.00588   2.17030   2.31312
 Alpha virt. eigenvalues --    3.40490
          Condensed to atoms (all electrons):
               1          2          3          4          5          6
     1  C    5.396183   0.374303   0.360763   0.374249   0.248405  -0.051830
     2  H    0.374303   0.492695  -0.023891  -0.024693  -0.042467   0.003871
     3  H    0.360763  -0.023891   0.530697  -0.023871  -0.042960   0.000752
     4  H    0.374249  -0.024693  -0.023871   0.492580  -0.042455  -0.003831
     5  C    0.248405  -0.042467  -0.042960  -0.042455   5.058239   0.364045
     6  H   -0.051830   0.003871   0.000752  -0.003831   0.364045   0.588210
     7  H   -0.051815  -0.003854   0.000765   0.003872   0.364024  -0.045895
     8  O   -0.042367   0.001961   0.001399   0.001969   0.225155  -0.038170
     9  H    0.005186  -0.000101  -0.000144  -0.000101  -0.045817  -0.002414
               7          8          9
     1  C   -0.051815  -0.042367   0.005186
     2  H   -0.003854   0.001961  -0.000101
     3  H    0.000765   0.001399  -0.000144
     4  H    0.003872   0.001969  -0.000101
     5  C    0.364024   0.225155  -0.045817
     6  H   -0.045895  -0.038170  -0.002414
     7  H    0.588221  -0.038174  -0.002415
     8  O   -0.038174   8.304814   0.268571
     9  H   -0.002415   0.268571   0.404317
 Mulliken charges:
               1
     1  C   -0.613076
     2  H    0.222176
     3  H    0.196491
     4  H    0.222281
     5  C   -0.086169
     6  H    0.185264
     7  H    0.185272
     8  O   -0.685158
     9  H    0.372919
 Sum of Mulliken charges =   0.00000
 Mulliken charges with hydrogens summed into heavy atoms:
               1
     1  C    0.027872
     5  C    0.284368
     8  O   -0.312240
 Electronic spatial extent (au):  <R**2>=            195.2837
 Charge=              0.0000 electrons
 Dipole moment (field-independent basis, Debye):
    X=             -0.1125    Y=              1.9787    Z=              0.0000  Tot=              1.9819
 Quadrupole moment (field-independent basis, Debye-Ang):
   XX=            -16.8011   YY=            -20.6076   ZZ=            -19.9003
   XY=             -2.3474   XZ=             -0.0002   YZ=              0.0004
 Traceless Quadrupole moment (field-independent basis, Debye-Ang):
   XX=              2.3019   YY=             -1.5046   ZZ=             -0.7973
   XY=             -2.3474   XZ=             -0.0002   YZ=              0.0004
 Octapole moment (field-independent basis, Debye-Ang**2):
  XXX=            -16.9652  YYY=             -0.7210  ZZZ=              0.0035  XYY=             -0.7757
  XXY=              2.9607  XXZ=             -0.0007  XZZ=             -1.7319  YZZ=             -0.5746
  YYZ=             -0.0029  XYZ=             -0.0010
 Hexadecapole moment (field-independent basis, Debye-Ang**3):
 XXXX=           -132.6318 YYYY=            -53.2727 ZZZZ=            -30.0486 XXXY=             -0.7409
 XXXZ=             -0.0040 YYYX=              1.0331 YYYZ=              0.0043 ZZZX=              0.0056
 ZZZY=             -0.0010 XXYY=            -35.5329 XXZZ=            -31.9775 YYZZ=            -12.6830
 XXYZ=             -0.0038 YYXZ=             -0.0034 ZZXY=             -0.7246
 N-N= 8.169462369448D+01 E-N=-5.231795221337D+02  KE= 1.529963984824D+02
 Calling FoFJK, ICntrl=      2127 FMM=F ISym2X=0 I1Cent= 0 IOpClX= 0 NMat=1 NMatS=1 NMatT=0.
 ***** Axes restored to original set *****
 -------------------------------------------------------------------
 Center     Atomic                   Forces (Hartrees/Bohr)
 Number     Number              X              Y              Z
 -------------------------------------------------------------------
      1        6           0.004430710    0.006249815    0.017577026
      2        1           0.001784930   -0.008793288   -0.000241529
      3        1           0.003002759    0.004231515   -0.008629863
      4        1          -0.008881465   -0.001223072   -0.000228934
      5        6          -0.003947234   -0.005555165   -0.008604650
      6        1          -0.000688346    0.011784413   -0.003179820
      7        1           0.011354676    0.003250834   -0.003171069
      8        8          -0.007924923   -0.011179189    0.000086075
      9        1           0.000868893    0.001234137    0.006392765
 -------------------------------------------------------------------
 Cartesian Forces:  Max     0.017577026 RMS     0.006886532

 GradGradGradGradGradGradGradGradGradGradGradGradGradGradGradGradGradGrad
 Berny optimization.
 FormGI is forming the generalized inverse of G from B-inverse, IUseBI=4.
 Internal  Forces:  Max     0.013429103 RMS     0.005700520
 Search for a local minimum.
 Step number   1 out of a maximum of   43
 All quantities printed in internal units (Hartrees-Bohrs-Radians)
 Mixed Optimization -- RFO/linear search
 Second derivative matrix not updated -- first step.
 ITU=  0
     Eigenvalues ---    0.00237   0.01295   0.05139   0.05720   0.05720
     Eigenvalues ---    0.05816   0.11239   0.13704   0.16000   0.16000
     Eigenvalues ---    0.16000   0.16000   0.22071   0.28519   0.37230
     Eigenvalues ---    0.37230   0.37230   0.37230   0.37230   0.40989
     Eigenvalues ---    0.55473
 RFO step:  Lambda=-3.61234930D-03 EMin= 2.36824062D-03
 Linear search not attempted -- first point.
 Iteration  1 RMS(Cart)=  0.04179132 RMS(Int)=  0.00081605
 Iteration  2 RMS(Cart)=  0.00098944 RMS(Int)=  0.00031501
 Iteration  3 RMS(Cart)=  0.00000057 RMS(Int)=  0.00031501
 Variable       Old X    -DE/DX   Delta X   Delta X   Delta X     New X
                                 (Linear)    (Quad)   (Total)
    R1        2.02201   0.00889   0.00000   0.02364   0.02364   2.04564
    R2        2.02201   0.01004   0.00000   0.02671   0.02671   2.04872
    R3        2.02201   0.00888   0.00000   0.02363   0.02363   2.04563
    R4        2.91018  -0.00725   0.00000  -0.02511  -0.02511   2.88507
    R5        2.02201   0.01135   0.00000   0.03019   0.03019   2.05219
    R6        2.02201   0.01135   0.00000   0.03018   0.03018   2.05219
    R7        2.70231   0.01233   0.00000   0.02982   0.02982   2.73213
    R8        1.81414   0.00609   0.00000   0.01091   0.01091   1.82505
    A1        1.91063  -0.00054   0.00000  -0.00068  -0.00072   1.90992
    A2        1.91063  -0.00135   0.00000  -0.01342  -0.01341   1.89722
    A3        1.91063   0.00074   0.00000   0.00325   0.00323   1.91387
    A4        1.91063  -0.00053   0.00000  -0.00066  -0.00070   1.90994
    A5        1.91063   0.00097   0.00000   0.00855   0.00851   1.91914
    A6        1.91063   0.00070   0.00000   0.00297   0.00295   1.91359
    A7        1.91063   0.00165   0.00000  -0.00241  -0.00201   1.90862
    A8        1.91063   0.00165   0.00000  -0.00244  -0.00205   1.90859
    A9        1.91063  -0.01343   0.00000  -0.05674  -0.05650   1.85414
   A10        1.91063  -0.00276   0.00000  -0.02072  -0.02141   1.88922
   A11        1.91063   0.00644   0.00000   0.04117   0.04072   1.95135
   A12        1.91063   0.00644   0.00000   0.04115   0.04069   1.95132
   A13        1.91114   0.00445   0.00000   0.02723   0.02723   1.93836
    D1        3.13965  -0.00029   0.00000  -0.00700  -0.00708   3.13258
    D2        1.04526   0.00107   0.00000   0.02135   0.02145   1.06671
    D3       -1.04914   0.00039   0.00000   0.00720   0.00721  -1.04192
    D4        1.04526  -0.00068   0.00000  -0.01339  -0.01348   1.03178
    D5       -1.04914   0.00068   0.00000   0.01496   0.01505  -1.03408
    D6        3.13965   0.00000   0.00000   0.00081   0.00081   3.14047
    D7       -1.04914  -0.00106   0.00000  -0.01962  -0.01972  -1.06886
    D8        3.13965   0.00030   0.00000   0.00873   0.00881  -3.13472
    D9        1.04526  -0.00038   0.00000  -0.00542  -0.00543   1.03983
   D10        3.14157   0.00000   0.00000  -0.00007  -0.00007   3.14150
   D11       -1.04722  -0.00226   0.00000  -0.01256  -0.01355  -1.06076
   D12        1.04718   0.00225   0.00000   0.01247   0.01346   1.06064
         Item               Value     Threshold  Converged?
 Maximum Force            0.013429     0.000450     NO 
 RMS     Force            0.005701     0.000300     NO 
 Maximum Displacement     0.111895     0.001800     NO 
 RMS     Displacement     0.042204     0.001200     NO 
 Predicted change in Energy=-1.839467D-03
 GradGradGradGradGradGradGradGradGradGradGradGradGradGradGradGradGradGrad

                          Input orientation:                          
 ---------------------------------------------------------------------
 Center     Atomic      Atomic             Coordinates (Angstroms)
 Number     Number       Type             X           Y           Z
 ---------------------------------------------------------------------
      1          6           0       -1.074056   -0.051386    0.021372
      2          1           0       -0.720492   -1.074434    0.035098
      3          1           0       -0.727456    0.437888   -0.881861
      4          1           0       -2.156457   -0.057997    0.034687
      5          6           0       -0.550279    0.689506    1.249209
      6          1           0       -0.900174    1.717303    1.225825
      7          1           0        0.535434    0.699397    1.227591
      8          8           0       -1.057980   -0.024581    2.399251
      9          1           0       -0.765585    0.389113    3.221494
 ---------------------------------------------------------------------
                    Distance matrix (angstroms):
                    1          2          3          4          5
     1  C    0.000000
     2  H    1.082508   0.000000
     3  H    1.084136   1.768610   0.000000
     4  H    1.082503   1.759301   1.768617   0.000000
     5  C    1.526711   2.148143   2.153175   2.147937   0.000000
     6  H    2.146905   3.040380   2.471654   2.479666   1.085975
     7  H    2.146881   2.479086   2.472462   3.040221   1.085973
     8  O    2.378084   2.608699   3.329988   2.607476   1.445779
     9  H    3.244991   3.506725   4.103822   3.505734   2.006614
                    6          7          8          9
     6  H    0.000000
     7  H    1.759860   0.000000
     8  O    2.106179   2.106157   0.000000
     9  H    2.401020   2.400953   0.965774   0.000000
 Stoichiometry    C2H6O
 Framework group  C1[X(C2H6O)]
 Deg. of freedom    21
 Full point group                 C1      NOp   1
 Largest Abelian subgroup         C1      NOp   1
 Largest concise Abelian subgroup C1      NOp   1
                         Standard orientation:                         
 ---------------------------------------------------------------------
 Center     Atomic      Atomic             Coordinates (Angstroms)
 Number     Number       Type             X           Y           Z
 ---------------------------------------------------------------------
      1          6           0        1.219529   -0.237992    0.000006
      2          1           0        1.256146   -0.867149    0.880145
      3          1           0        2.072944    0.430612   -0.001125
      4          1           0        1.254912   -0.868576   -0.879155
      5          6           0       -0.075698    0.570235    0.000010
      6          1           0       -0.103157    1.206127   -0.879893
      7          1           0       -0.103163    1.206048    0.879967
      8          8           0       -1.153469   -0.393450   -0.000013
      9          1           0       -2.012916    0.047083    0.000070
 ---------------------------------------------------------------------
 Rotational constants (GHZ):     34.3164218      9.3808727      8.1042595
 Standard basis: 3-21G (6D, 7F)
 There are    39 symmetry adapted cartesian basis functions of A   symmetry.
 There are    39 symmetry adapted basis functions of A   symmetry.
    39 basis functions,    63 primitive gaussians,    39 cartesian basis functions
    13 alpha electrons       13 beta electrons
       nuclear repulsion energy        81.5152008929 Hartrees.
 NAtoms=    9 NActive=    9 NUniq=    9 SFac= 1.00D+00 NAtFMM=   60 NAOKFM=F Big=F
 Integral buffers will be    262144 words long.
 Raffenetti 1 integral format.
 Two-electron integral symmetry is turned on.
 One-electron integrals computed using PRISM.
 NBasis=    39 RedAO= T EigKep=  1.61D-02  NBF=    39
 NBsUse=    39 1.00D-06 EigRej= -1.00D+00 NBFU=    39
 Initial guess from the checkpoint file:  "C:\Grég_ethanol\ethanol_connectivity.chk"
 B after Tr=     0.000000    0.000000    0.000000
         Rot=    0.999983   -0.000126    0.000014    0.005744 Ang=  -0.66 deg.
 ExpMin= 1.83D-01 ExpMax= 3.22D+02 ExpMxC= 3.22D+02 IAcc=1 IRadAn=         1 AccDes= 0.00D+00
 Harris functional with IExCor=  205 and IRadAn=       1 diagonalized for initial guess.
 HarFok:  IExCor=  205 AccDes= 0.00D+00 IRadAn=         1 IDoV= 1 UseB2=F ITyADJ=14
 ICtDFT=  3500011 ScaDFX=  1.000000  1.000000  1.000000  1.000000
 FoFCou: FMM=F IPFlag=           0 FMFlag=      100000 FMFlg1=           0
         NFxFlg=           0 DoJE=T BraDBF=F KetDBF=T FulRan=T
         wScrn=  0.000000 ICntrl=     500 IOpCl=  0 I1Cent=   200000004 NGrid=           0
         NMat0=    1 NMatS0=      1 NMatT0=    0 NMatD0=    1 NMtDS0=    0 NMtDT0=    0
 Petite list used in FoFCou.
 Keep R1 ints in memory in canonical form, NReq=1139679.
 Requested convergence on RMS density matrix=1.00D-08 within 128 cycles.
 Requested convergence on MAX density matrix=1.00D-06.
 Requested convergence on             energy=1.00D-06.
 No special actions if energy rises.
 SCF Done:  E(RHF) =  -153.222572423     A.U. after   10 cycles
            NFock= 10  Conv=0.81D-08     -V/T= 2.0023
 Calling FoFJK, ICntrl=      2127 FMM=F ISym2X=0 I1Cent= 0 IOpClX= 0 NMat=1 NMatS=1 NMatT=0.
 ***** Axes restored to original set *****
 -------------------------------------------------------------------
 Center     Atomic                   Forces (Hartrees/Bohr)
 Number     Number              X              Y              Z
 -------------------------------------------------------------------
      1        6           0.000670887    0.000969492    0.000553610
      2        1          -0.000374528    0.000395180   -0.000075804
      3        1          -0.000756594   -0.001076659   -0.000660327
      4        1           0.000491703   -0.000220911   -0.000091423
      5        6          -0.001203903   -0.001731943   -0.002941209
      6        1           0.000236603   -0.000481187    0.002390230
      7        1          -0.000533175    0.000079516    0.002389161
      8        8           0.001185143    0.001667364   -0.001688812
      9        1           0.000283864    0.000399149    0.000124573
 -------------------------------------------------------------------
 Cartesian Forces:  Max     0.002941209 RMS     0.001168357

 GradGradGradGradGradGradGradGradGradGradGradGradGradGradGradGradGradGrad
 Berny optimization.
 Using GEDIIS/GDIIS optimizer.
 FormGI is forming the generalized inverse of G from B-inverse, IUseBI=4.
 Internal  Forces:  Max     0.002780803 RMS     0.001048419
 Search for a local minimum.
 Step number   2 out of a maximum of   43
 All quantities printed in internal units (Hartrees-Bohrs-Radians)
 Mixed Optimization -- RFO/linear search
 Update second derivatives using D2CorX and points    1    2
 DE= -1.58D-03 DEPred=-1.84D-03 R= 8.60D-01
 TightC=F SS=  1.41D+00  RLast= 1.23D-01 DXNew= 5.0454D-01 3.6877D-01
 Trust test= 8.60D-01 RLast= 1.23D-01 DXMaxT set to 3.69D-01
 ITU=  1  0
 Use linear search instead of GDIIS.
     Eigenvalues ---    0.00237   0.01295   0.05443   0.05633   0.05655
     Eigenvalues ---    0.06108   0.11468   0.13459   0.15594   0.16000
     Eigenvalues ---    0.16000   0.16251   0.22481   0.28489   0.36923
     Eigenvalues ---    0.37230   0.37230   0.37230   0.37312   0.43029
     Eigenvalues ---    0.55279
 RFO step:  Lambda=-1.78940539D-04 EMin= 2.36824103D-03
 Quartic linear search produced a step of -0.10480.
 Iteration  1 RMS(Cart)=  0.00960615 RMS(Int)=  0.00010419
 Iteration  2 RMS(Cart)=  0.00008577 RMS(Int)=  0.00005871
 Iteration  3 RMS(Cart)=  0.00000000 RMS(Int)=  0.00005871
 Variable       Old X    -DE/DX   Delta X   Delta X   Delta X     New X
                                 (Linear)    (Quad)   (Total)
    R1        2.04564  -0.00050  -0.00248   0.00249   0.00002   2.04566
    R2        2.04872  -0.00018  -0.00280   0.00374   0.00094   2.04966
    R3        2.04563  -0.00049  -0.00248   0.00250   0.00003   2.04566
    R4        2.88507   0.00018   0.00263  -0.00335  -0.00072   2.88434
    R5        2.05219  -0.00058  -0.00316   0.00331   0.00014   2.05234
    R6        2.05219  -0.00058  -0.00316   0.00331   0.00015   2.05234
    R7        2.73213  -0.00278  -0.00313  -0.00141  -0.00454   2.72759
    R8        1.82505   0.00036  -0.00114   0.00229   0.00115   1.82619
    A1        1.90992  -0.00081   0.00008  -0.00304  -0.00298   1.90694
    A2        1.89722  -0.00025   0.00141  -0.00673  -0.00533   1.89189
    A3        1.91387  -0.00018  -0.00034  -0.00131  -0.00166   1.91220
    A4        1.90994  -0.00082   0.00007  -0.00305  -0.00299   1.90695
    A5        1.91914   0.00217  -0.00089   0.01506   0.01415   1.93330
    A6        1.91359  -0.00015  -0.00031  -0.00121  -0.00153   1.91206
    A7        1.90862   0.00169   0.00021   0.01505   0.01514   1.92376
    A8        1.90859   0.00170   0.00021   0.01512   0.01522   1.92381
    A9        1.85414   0.00078   0.00592  -0.00631  -0.00037   1.85377
   A10        1.88922  -0.00056   0.00224  -0.00398  -0.00197   1.88724
   A11        1.95135  -0.00172  -0.00427  -0.00928  -0.01352   1.93783
   A12        1.95132  -0.00172  -0.00426  -0.00926  -0.01350   1.93782
   A13        1.93836  -0.00064  -0.00285   0.00063  -0.00223   1.93614
    D1        3.13258   0.00092   0.00074   0.01236   0.01317  -3.13744
    D2        1.06671  -0.00041  -0.00225  -0.00058  -0.00290   1.06381
    D3       -1.04192   0.00025  -0.00076   0.00586   0.00510  -1.03682
    D4        1.03178   0.00067   0.00141   0.00750   0.00898   1.04076
    D5       -1.03408  -0.00066  -0.00158  -0.00543  -0.00708  -1.04117
    D6        3.14047   0.00000  -0.00009   0.00100   0.00092   3.14138
    D7       -1.06886   0.00041   0.00207   0.00259   0.00472  -1.06414
    D8       -3.13472  -0.00091  -0.00092  -0.01035  -0.01134   3.13712
    D9        1.03983  -0.00025   0.00057  -0.00391  -0.00334   1.03648
   D10        3.14150   0.00000   0.00001  -0.00001   0.00000   3.14150
   D11       -1.06076   0.00159   0.00142   0.00915   0.01057  -1.05020
   D12        1.06064  -0.00159  -0.00141  -0.00926  -0.01067   1.04997
         Item               Value     Threshold  Converged?
 Maximum Force            0.002781     0.000450     NO 
 RMS     Force            0.001048     0.000300     NO 
 Maximum Displacement     0.028684     0.001800     NO 
 RMS     Displacement     0.009591     0.001200     NO 
 Predicted change in Energy=-1.108942D-04
 GradGradGradGradGradGradGradGradGradGradGradGradGradGradGradGradGradGrad

                          Input orientation:                          
 ---------------------------------------------------------------------
 Center     Atomic      Atomic             Coordinates (Angstroms)
 Number     Number       Type             X           Y           Z
 ---------------------------------------------------------------------
      1          6           0       -1.073221   -0.050167    0.018085
      2          1           0       -0.722743   -1.074225    0.035762
      3          1           0       -0.733275    0.428620   -0.893852
      4          1           0       -2.155575   -0.059163    0.034586
      5          6           0       -0.549756    0.690387    1.245784
      6          1           0       -0.898789    1.718813    1.241004
      7          1           0        0.536229    0.702031    1.242528
      8          8           0       -1.056637   -0.023282    2.393428
      9          1           0       -0.763277    0.391798    3.215341
 ---------------------------------------------------------------------
                    Distance matrix (angstroms):
                    1          2          3          4          5
     1  C    0.000000
     2  H    1.082517   0.000000
     3  H    1.084633   1.767154   0.000000
     4  H    1.082517   1.755950   1.767163   0.000000
     5  C    1.526328   2.146610   2.163387   2.146504   0.000000
     6  H    2.157602   3.047074   2.499921   2.489207   1.086051
     7  H    2.157635   2.489253   2.500103   3.047023   1.086053
     8  O    2.375553   2.602798   3.333915   2.602516   1.443378
     9  H    3.242505   3.501512   4.109467   3.501294   2.003472
                    6          7          8          9
     6  H    0.000000
     7  H    1.758729   0.000000
     8  O    2.094730   2.094726   0.000000
     9  H    2.382716   2.382636   0.966381   0.000000
 Stoichiometry    C2H6O
 Framework group  C1[X(C2H6O)]
 Deg. of freedom    21
 Full point group                 C1      NOp   1
 Largest Abelian subgroup         C1      NOp   1
 Largest concise Abelian subgroup C1      NOp   1
                         Standard orientation:                         
 ---------------------------------------------------------------------
 Center     Atomic      Atomic             Coordinates (Angstroms)
 Number     Number       Type             X           Y           Z
 ---------------------------------------------------------------------
      1          6           0        1.220750   -0.233133    0.000009
      2          1           0        1.255753   -0.865327    0.878045
      3          1           0        2.081484    0.426842   -0.000193
      4          1           0        1.255469   -0.865515   -0.877905
      5          6           0       -0.077158    0.570056    0.000003
      6          1           0       -0.125376    1.205577   -0.879369
      7          1           0       -0.125424    1.205597    0.879360
      8          8           0       -1.149183   -0.396434   -0.000010
      9          1           0       -2.009996    0.042762    0.000066
 ---------------------------------------------------------------------
 Rotational constants (GHZ):     34.3589113      9.3958420      8.1157329
 Standard basis: 3-21G (6D, 7F)
 There are    39 symmetry adapted cartesian basis functions of A   symmetry.
 There are    39 symmetry adapted basis functions of A   symmetry.
    39 basis functions,    63 primitive gaussians,    39 cartesian basis functions
    13 alpha electrons       13 beta electrons
       nuclear repulsion energy        81.5628337231 Hartrees.
 NAtoms=    9 NActive=    9 NUniq=    9 SFac= 1.00D+00 NAtFMM=   60 NAOKFM=F Big=F
 Integral buffers will be    262144 words long.
 Raffenetti 1 integral format.
 Two-electron integral symmetry is turned on.
 One-electron integrals computed using PRISM.
 NBasis=    39 RedAO= T EigKep=  1.62D-02  NBF=    39
 NBsUse=    39 1.00D-06 EigRej= -1.00D+00 NBFU=    39
 Initial guess from the checkpoint file:  "C:\Grég_ethanol\ethanol_connectivity.chk"
 B after Tr=     0.000000    0.000000    0.000000
         Rot=    0.999998   -0.000089    0.000026   -0.001790 Ang=  -0.21 deg.
 ExpMin= 1.83D-01 ExpMax= 3.22D+02 ExpMxC= 3.22D+02 IAcc=1 IRadAn=         1 AccDes= 0.00D+00
 Harris functional with IExCor=  205 and IRadAn=       1 diagonalized for initial guess.
 HarFok:  IExCor=  205 AccDes= 0.00D+00 IRadAn=         1 IDoV= 1 UseB2=F ITyADJ=14
 ICtDFT=  3500011 ScaDFX=  1.000000  1.000000  1.000000  1.000000
 FoFCou: FMM=F IPFlag=           0 FMFlag=      100000 FMFlg1=           0
         NFxFlg=           0 DoJE=T BraDBF=F KetDBF=T FulRan=T
         wScrn=  0.000000 ICntrl=     500 IOpCl=  0 I1Cent=   200000004 NGrid=           0
         NMat0=    1 NMatS0=      1 NMatT0=    0 NMatD0=    1 NMtDS0=    0 NMtDT0=    0
 Petite list used in FoFCou.
 Keep R1 ints in memory in canonical form, NReq=1139679.
 Requested convergence on RMS density matrix=1.00D-08 within 128 cycles.
 Requested convergence on MAX density matrix=1.00D-06.
 Requested convergence on             energy=1.00D-06.
 No special actions if energy rises.
 SCF Done:  E(RHF) =  -153.222675422     A.U. after    9 cycles
            NFock=  9  Conv=0.37D-08     -V/T= 2.0023
 Calling FoFJK, ICntrl=      2127 FMM=F ISym2X=0 I1Cent= 0 IOpClX= 0 NMat=1 NMatS=1 NMatT=0.
 ***** Axes restored to original set *****
 -------------------------------------------------------------------
 Center     Atomic                   Forces (Hartrees/Bohr)
 Number     Number              X              Y              Z
 -------------------------------------------------------------------
      1        6           0.000454297    0.000653460   -0.000065147
      2        1          -0.000026472    0.000384685    0.000130914
      3        1          -0.000276885   -0.000389929    0.000515851
      4        1           0.000370511    0.000098454    0.000121160
      5        6           0.000166988    0.000222956   -0.000594304
      6        1           0.000167328   -0.000532548   -0.000248455
      7        1          -0.000558748   -0.000018716   -0.000251822
      8        8          -0.000240279   -0.000338529    0.000751081
      9        1          -0.000056740   -0.000079834   -0.000359278
 -------------------------------------------------------------------
 Cartesian Forces:  Max     0.000751081 RMS     0.000360819

 GradGradGradGradGradGradGradGradGradGradGradGradGradGradGradGradGradGrad
 Berny optimization.
 Using GEDIIS/GDIIS optimizer.
 FormGI is forming the generalized inverse of G from B-inverse, IUseBI=4.
 Internal  Forces:  Max     0.001106387 RMS     0.000330020
 Search for a local minimum.
 Step number   3 out of a maximum of   43
 All quantities printed in internal units (Hartrees-Bohrs-Radians)
 Mixed Optimization -- En-DIIS/RFO-DIIS
 Update second derivatives using D2CorX and points    1    2    3
 DE= -1.03D-04 DEPred=-1.11D-04 R= 9.29D-01
 TightC=F SS=  1.41D+00  RLast= 4.29D-02 DXNew= 6.2019D-01 1.2859D-01
 Trust test= 9.29D-01 RLast= 4.29D-02 DXMaxT set to 3.69D-01
 ITU=  1  1  0
 Use linear search instead of GDIIS.
     Eigenvalues ---    0.00237   0.01295   0.05412   0.05539   0.05561
     Eigenvalues ---    0.06058   0.12188   0.13477   0.15043   0.16000
     Eigenvalues ---    0.16046   0.16201   0.22340   0.29053   0.37229
     Eigenvalues ---    0.37230   0.37230   0.37272   0.38015   0.44244
     Eigenvalues ---    0.55591
 RFO step:  Lambda=-1.02939449D-05 EMin= 2.36830871D-03
 Quartic linear search produced a step of -0.06700.
 Iteration  1 RMS(Cart)=  0.00175287 RMS(Int)=  0.00000439
 Iteration  2 RMS(Cart)=  0.00000104 RMS(Int)=  0.00000429
 Iteration  3 RMS(Cart)=  0.00000000 RMS(Int)=  0.00000429
 Variable       Old X    -DE/DX   Delta X   Delta X   Delta X     New X
                                 (Linear)    (Quad)   (Total)
    R1        2.04566  -0.00037   0.00000  -0.00095  -0.00095   2.04471
    R2        2.04966  -0.00069  -0.00006  -0.00164  -0.00171   2.04795
    R3        2.04566  -0.00037   0.00000  -0.00094  -0.00095   2.04472
    R4        2.88434  -0.00111   0.00005  -0.00363  -0.00358   2.88076
    R5        2.05234  -0.00056  -0.00001  -0.00140  -0.00141   2.05093
    R6        2.05234  -0.00056  -0.00001  -0.00141  -0.00142   2.05093
    R7        2.72759   0.00062   0.00030   0.00083   0.00114   2.72872
    R8        1.82619  -0.00036  -0.00008  -0.00048  -0.00055   1.82564
    A1        1.90694   0.00002   0.00020  -0.00003   0.00017   1.90711
    A2        1.89189   0.00018   0.00036  -0.00006   0.00030   1.89219
    A3        1.91220  -0.00025   0.00011  -0.00175  -0.00163   1.91057
    A4        1.90695   0.00001   0.00020  -0.00004   0.00016   1.90711
    A5        1.93330   0.00027  -0.00095   0.00341   0.00247   1.93577
    A6        1.91206  -0.00023   0.00010  -0.00161  -0.00150   1.91055
    A7        1.92376  -0.00020  -0.00101   0.00001  -0.00100   1.92277
    A8        1.92381  -0.00020  -0.00102   0.00000  -0.00101   1.92280
    A9        1.85377  -0.00001   0.00002   0.00009   0.00011   1.85388
   A10        1.88724   0.00008   0.00013  -0.00013   0.00002   1.88726
   A11        1.93783   0.00016   0.00091   0.00001   0.00092   1.93875
   A12        1.93782   0.00016   0.00090   0.00002   0.00093   1.93875
   A13        1.93614  -0.00019   0.00015  -0.00140  -0.00125   1.93488
    D1       -3.13744  -0.00004  -0.00088   0.00118   0.00030  -3.13714
    D2        1.06381   0.00011   0.00019   0.00134   0.00154   1.06535
    D3       -1.03682   0.00003  -0.00034   0.00126   0.00091  -1.03591
    D4        1.04076  -0.00007  -0.00060   0.00018  -0.00042   1.04034
    D5       -1.04117   0.00008   0.00047   0.00034   0.00082  -1.04035
    D6        3.14138   0.00000  -0.00006   0.00025   0.00019   3.14158
    D7       -1.06414  -0.00011  -0.00032  -0.00090  -0.00122  -1.06535
    D8        3.13712   0.00004   0.00076  -0.00074   0.00002   3.13714
    D9        1.03648  -0.00003   0.00022  -0.00083  -0.00060   1.03588
   D10        3.14150   0.00000   0.00000   0.00001   0.00001   3.14152
   D11       -1.05020  -0.00015  -0.00071   0.00009  -0.00061  -1.05081
   D12        1.04997   0.00016   0.00071  -0.00006   0.00065   1.05062
         Item               Value     Threshold  Converged?
 Maximum Force            0.001106     0.000450     NO 
 RMS     Force            0.000330     0.000300     NO 
 Maximum Displacement     0.003987     0.001800     NO 
 RMS     Displacement     0.001753     0.001200     NO 
 Predicted change in Energy=-5.680462D-06
 GradGradGradGradGradGradGradGradGradGradGradGradGradGradGradGradGradGrad

                          Input orientation:                          
 ---------------------------------------------------------------------
 Center     Atomic      Atomic             Coordinates (Angstroms)
 Number     Number       Type             X           Y           Z
 ---------------------------------------------------------------------
      1          6           0       -1.072425   -0.049006    0.018606
      2          1           0       -0.721982   -1.072517    0.037871
      3          1           0       -0.733650    0.427898   -0.893680
      4          1           0       -2.154259   -0.057753    0.036479
      5          6           0       -0.550018    0.690048    1.245302
      6          1           0       -0.898870    1.717741    1.239675
      7          1           0        0.535215    0.701719    1.241115
      8          8           0       -1.057349   -0.024403    2.393017
      9          1           0       -0.763706    0.391082    3.214280
 ---------------------------------------------------------------------
                    Distance matrix (angstroms):
                    1          2          3          4          5
     1  C    0.000000
     2  H    1.082015   0.000000
     3  H    1.083731   1.766117   0.000000
     4  H    1.082017   1.755325   1.766121   0.000000
     5  C    1.524433   2.143385   2.162797   2.143374   0.000000
     6  H    2.154653   3.043216   2.498439   2.485168   1.085303
     7  H    2.154675   2.485207   2.498469   3.043225   1.085303
     8  O    2.374587   2.599563   3.333427   2.599538   1.443979
     9  H    3.240574   3.497633   4.108235   3.497644   2.002977
                    6          7          8          9
     6  H    0.000000
     7  H    1.757527   0.000000
     8  O    2.095323   2.095326   0.000000
     9  H    2.382721   2.382661   0.966089   0.000000
 Stoichiometry    C2H6O
 Framework group  C1[X(C2H6O)]
 Deg. of freedom    21
 Full point group                 C1      NOp   1
 Largest Abelian subgroup         C1      NOp   1
 Largest concise Abelian subgroup C1      NOp   1
                         Standard orientation:                         
 ---------------------------------------------------------------------
 Center     Atomic      Atomic             Coordinates (Angstroms)
 Number     Number       Type             X           Y           Z
 ---------------------------------------------------------------------
      1          6           0        1.219651   -0.233443    0.000005
      2          1           0        1.252059   -0.865430    0.877671
      3          1           0        2.081898    0.423065   -0.000006
      4          1           0        1.252041   -0.865444   -0.877654
      5          6           0       -0.075905    0.569943   -0.000002
      6          1           0       -0.122257    1.205151   -0.878777
      7          1           0       -0.122286    1.205180    0.878751
      8          8           0       -1.149376   -0.395839   -0.000008
      9          1           0       -2.008922    0.045191    0.000056
 ---------------------------------------------------------------------
 Rotational constants (GHZ):     34.3950240      9.4050912      8.1238046
 Standard basis: 3-21G (6D, 7F)
 There are    39 symmetry adapted cartesian basis functions of A   symmetry.
 There are    39 symmetry adapted basis functions of A   symmetry.
    39 basis functions,    63 primitive gaussians,    39 cartesian basis functions
    13 alpha electrons       13 beta electrons
       nuclear repulsion energy        81.6010308655 Hartrees.
 NAtoms=    9 NActive=    9 NUniq=    9 SFac= 1.00D+00 NAtFMM=   60 NAOKFM=F Big=F
 Integral buffers will be    262144 words long.
 Raffenetti 1 integral format.
 Two-electron integral symmetry is turned on.
 One-electron integrals computed using PRISM.
 NBasis=    39 RedAO= T EigKep=  1.61D-02  NBF=    39
 NBsUse=    39 1.00D-06 EigRej= -1.00D+00 NBFU=    39
 Initial guess from the checkpoint file:  "C:\Grég_ethanol\ethanol_connectivity.chk"
 B after Tr=     0.000000    0.000000    0.000000
         Rot=    1.000000   -0.000013    0.000006    0.000519 Ang=  -0.06 deg.
 Keep R1 ints in memory in canonical form, NReq=1139693.
 Requested convergence on RMS density matrix=1.00D-08 within 128 cycles.
 Requested convergence on MAX density matrix=1.00D-06.
 Requested convergence on             energy=1.00D-06.
 No special actions if energy rises.
 SCF Done:  E(RHF) =  -153.222680685     A.U. after    8 cycles
            NFock=  8  Conv=0.50D-08     -V/T= 2.0023
 Calling FoFJK, ICntrl=      2127 FMM=F ISym2X=0 I1Cent= 0 IOpClX= 0 NMat=1 NMatS=1 NMatT=0.
 ***** Axes restored to original set *****
 -------------------------------------------------------------------
 Center     Atomic                   Forces (Hartrees/Bohr)
 Number     Number              X              Y              Z
 -------------------------------------------------------------------
      1        6          -0.000032006   -0.000044702    0.000001861
      2        1          -0.000026563   -0.000049199   -0.000051656
      3        1          -0.000005298   -0.000006874    0.000107550
      4        1          -0.000035812   -0.000041734   -0.000052600
      5        6           0.000195893    0.000279368   -0.000214223
      6        1           0.000002066   -0.000024144    0.000041513
      7        1          -0.000024302   -0.000007888    0.000039362
      8        8          -0.000059569   -0.000085334    0.000150112
      9        1          -0.000014409   -0.000019493   -0.000021919
 -------------------------------------------------------------------
 Cartesian Forces:  Max     0.000279368 RMS     0.000091795

 GradGradGradGradGradGradGradGradGradGradGradGradGradGradGradGradGradGrad
 Berny optimization.
 Using GEDIIS/GDIIS optimizer.
 FormGI is forming the generalized inverse of G from B-inverse, IUseBI=4.
 Internal  Forces:  Max     0.000179750 RMS     0.000057561
 Search for a local minimum.
 Step number   4 out of a maximum of   43
 All quantities printed in internal units (Hartrees-Bohrs-Radians)
 Mixed Optimization -- En-DIIS/RFO-DIIS
 Swapping is turned off.
 Update second derivatives using D2CorX and points    1    2    3    4
 DE= -5.26D-06 DEPred=-5.68D-06 R= 9.26D-01
 TightC=F SS=  1.41D+00  RLast= 6.81D-03 DXNew= 6.2019D-01 2.0438D-02
 Trust test= 9.26D-01 RLast= 6.81D-03 DXMaxT set to 3.69D-01
 ITU=  1  1  1  0
     Eigenvalues ---    0.00237   0.01295   0.05413   0.05528   0.05648
     Eigenvalues ---    0.06100   0.12062   0.13476   0.15366   0.15973
     Eigenvalues ---    0.16002   0.17333   0.22416   0.30790   0.35303
     Eigenvalues ---    0.37230   0.37230   0.37238   0.37898   0.43024
     Eigenvalues ---    0.55325
 En-DIIS/RFO-DIIS IScMMF=        0 using points:     4    3
 RFO step:  Lambda=-2.14684611D-07.
 DidBck=F Rises=F RFO-DIIS coefs:    0.93033    0.06967
 Iteration  1 RMS(Cart)=  0.00028964 RMS(Int)=  0.00000007
 Iteration  2 RMS(Cart)=  0.00000008 RMS(Int)=  0.00000003
 Variable       Old X    -DE/DX   Delta X   Delta X   Delta X     New X
                                 (Linear)    (Quad)   (Total)
    R1        2.04471   0.00004   0.00007  -0.00001   0.00006   2.04477
    R2        2.04795  -0.00010   0.00012  -0.00042  -0.00030   2.04765
    R3        2.04472   0.00004   0.00007  -0.00001   0.00005   2.04477
    R4        2.88076   0.00010   0.00025  -0.00006   0.00019   2.88095
    R5        2.05093  -0.00002   0.00010  -0.00021  -0.00011   2.05081
    R6        2.05093  -0.00002   0.00010  -0.00021  -0.00012   2.05081
    R7        2.72872   0.00018  -0.00008   0.00053   0.00045   2.72918
    R8        1.82564  -0.00003   0.00004  -0.00011  -0.00007   1.82557
    A1        1.90711  -0.00001  -0.00001  -0.00010  -0.00011   1.90700
    A2        1.89219  -0.00007  -0.00002  -0.00020  -0.00022   1.89196
    A3        1.91057   0.00010   0.00011   0.00043   0.00054   1.91111
    A4        1.90711  -0.00001  -0.00001  -0.00010  -0.00011   1.90700
    A5        1.93577  -0.00011  -0.00017  -0.00047  -0.00064   1.93512
    A6        1.91055   0.00010   0.00010   0.00045   0.00055   1.91111
    A7        1.92277   0.00005   0.00007   0.00024   0.00031   1.92308
    A8        1.92280   0.00005   0.00007   0.00021   0.00028   1.92308
    A9        1.85388  -0.00009  -0.00001  -0.00042  -0.00043   1.85345
   A10        1.88726  -0.00001   0.00000   0.00015   0.00015   1.88741
   A11        1.93875   0.00000  -0.00006  -0.00009  -0.00015   1.93860
   A12        1.93875   0.00000  -0.00006  -0.00009  -0.00015   1.93860
   A13        1.93488   0.00002   0.00009  -0.00004   0.00005   1.93493
    D1       -3.13714   0.00001  -0.00002   0.00010   0.00008  -3.13706
    D2        1.06535  -0.00004  -0.00011  -0.00036  -0.00047   1.06488
    D3       -1.03591  -0.00001  -0.00006  -0.00012  -0.00018  -1.03609
    D4        1.04034   0.00002   0.00003   0.00024   0.00027   1.04061
    D5       -1.04035  -0.00002  -0.00006  -0.00022  -0.00028  -1.04063
    D6        3.14158   0.00000  -0.00001   0.00002   0.00001   3.14158
    D7       -1.06535   0.00004   0.00008   0.00037   0.00046  -1.06490
    D8        3.13714  -0.00001   0.00000  -0.00009  -0.00009   3.13705
    D9        1.03588   0.00001   0.00004   0.00015   0.00019   1.03608
   D10        3.14152   0.00000   0.00000   0.00001   0.00001   3.14152
   D11       -1.05081   0.00001   0.00004  -0.00001   0.00004  -1.05077
   D12        1.05062  -0.00001  -0.00005   0.00006   0.00002   1.05064
         Item               Value     Threshold  Converged?
 Maximum Force            0.000180     0.000450     YES
 RMS     Force            0.000058     0.000300     YES
 Maximum Displacement     0.000790     0.001800     YES
 RMS     Displacement     0.000290     0.001200     YES
 Predicted change in Energy=-2.257281D-07
 Optimization completed.
    -- Stationary point found.
                           ----------------------------
                           !   Optimized Parameters   !
                           ! (Angstroms and Degrees)  !
 --------------------------                            --------------------------
 ! Name  Definition              Value          Derivative Info.                !
 --------------------------------------------------------------------------------
 ! R1    R(1,2)                  1.082          -DE/DX =    0.0                 !
 ! R2    R(1,3)                  1.0837         -DE/DX =   -0.0001              !
 ! R3    R(1,4)                  1.082          -DE/DX =    0.0                 !
 ! R4    R(1,5)                  1.5244         -DE/DX =    0.0001              !
 ! R5    R(5,6)                  1.0853         -DE/DX =    0.0                 !
 ! R6    R(5,7)                  1.0853         -DE/DX =    0.0                 !
 ! R7    R(5,8)                  1.444          -DE/DX =    0.0002              !
 ! R8    R(8,9)                  0.9661         -DE/DX =    0.0                 !
 ! A1    A(2,1,3)              109.2692         -DE/DX =    0.0                 !
 ! A2    A(2,1,4)              108.4143         -DE/DX =   -0.0001              !
 ! A3    A(2,1,5)              109.4677         -DE/DX =    0.0001              !
 ! A4    A(3,1,4)              109.2694         -DE/DX =    0.0                 !
 ! A5    A(3,1,5)              110.9112         -DE/DX =   -0.0001              !
 ! A6    A(4,1,5)              109.4667         -DE/DX =    0.0001              !
 ! A7    A(1,5,6)              110.1664         -DE/DX =    0.0001              !
 ! A8    A(1,5,7)              110.1681         -DE/DX =    0.0                 !
 ! A9    A(1,5,8)              106.2194         -DE/DX =   -0.0001              !
 ! A10   A(6,5,7)              108.1321         -DE/DX =    0.0                 !
 ! A11   A(6,5,8)              111.082          -DE/DX =    0.0                 !
 ! A12   A(7,5,8)              111.0822         -DE/DX =    0.0                 !
 ! A13   A(5,8,9)              110.8606         -DE/DX =    0.0                 !
 ! D1    D(2,1,5,6)           -179.7451         -DE/DX =    0.0                 !
 ! D2    D(2,1,5,7)             61.0401         -DE/DX =    0.0                 !
 ! D3    D(2,1,5,8)            -59.3531         -DE/DX =    0.0                 !
 ! D4    D(3,1,5,6)             59.6071         -DE/DX =    0.0                 !
 ! D5    D(3,1,5,7)            -59.6077         -DE/DX =    0.0                 !
 ! D6    D(3,1,5,8)            179.9991         -DE/DX =    0.0                 !
 ! D7    D(4,1,5,6)            -61.0403         -DE/DX =    0.0                 !
 ! D8    D(4,1,5,7)            179.7449         -DE/DX =    0.0                 !
 ! D9    D(4,1,5,8)             59.3517         -DE/DX =    0.0                 !
 ! D10   D(1,5,8,9)            179.9956         -DE/DX =    0.0                 !
 ! D11   D(6,5,8,9)            -60.207          -DE/DX =    0.0                 !
 ! D12   D(7,5,8,9)             60.196          -DE/DX =    0.0                 !
 --------------------------------------------------------------------------------
 GradGradGradGradGradGradGradGradGradGradGradGradGradGradGradGradGradGrad

                          Input orientation:                          
 ---------------------------------------------------------------------
 Center     Atomic      Atomic             Coordinates (Angstroms)
 Number     Number       Type             X           Y           Z
 ---------------------------------------------------------------------
      1          6           0       -1.072425   -0.049006    0.018606
      2          1           0       -0.721982   -1.072517    0.037871
      3          1           0       -0.733650    0.427898   -0.893680
      4          1           0       -2.154259   -0.057753    0.036479
      5          6           0       -0.550018    0.690048    1.245302
      6          1           0       -0.898870    1.717741    1.239675
      7          1           0        0.535215    0.701719    1.241115
      8          8           0       -1.057349   -0.024403    2.393017
      9          1           0       -0.763706    0.391082    3.214280
 ---------------------------------------------------------------------
                    Distance matrix (angstroms):
                    1          2          3          4          5
     1  C    0.000000
     2  H    1.082015   0.000000
     3  H    1.083731   1.766117   0.000000
     4  H    1.082017   1.755325   1.766121   0.000000
     5  C    1.524433   2.143385   2.162797   2.143374   0.000000
     6  H    2.154653   3.043216   2.498439   2.485168   1.085303
     7  H    2.154675   2.485207   2.498469   3.043225   1.085303
     8  O    2.374587   2.599563   3.333427   2.599538   1.443979
     9  H    3.240574   3.497633   4.108235   3.497644   2.002977
                    6          7          8          9
     6  H    0.000000
     7  H    1.757527   0.000000
     8  O    2.095323   2.095326   0.000000
     9  H    2.382721   2.382661   0.966089   0.000000
 Stoichiometry    C2H6O
 Framework group  C1[X(C2H6O)]
 Deg. of freedom    21
 Full point group                 C1      NOp   1
 Largest Abelian subgroup         C1      NOp   1
 Largest concise Abelian subgroup C1      NOp   1
                         Standard orientation:                         
 ---------------------------------------------------------------------
 Center     Atomic      Atomic             Coordinates (Angstroms)
 Number     Number       Type             X           Y           Z
 ---------------------------------------------------------------------
      1          6           0        1.219651   -0.233443    0.000005
      2          1           0        1.252059   -0.865430    0.877671
      3          1           0        2.081898    0.423065   -0.000006
      4          1           0        1.252041   -0.865444   -0.877654
      5          6           0       -0.075905    0.569943   -0.000002
      6          1           0       -0.122257    1.205151   -0.878777
      7          1           0       -0.122286    1.205180    0.878751
      8          8           0       -1.149376   -0.395839   -0.000008
      9          1           0       -2.008922    0.045191    0.000056
 ---------------------------------------------------------------------
 Rotational constants (GHZ):     34.3950240      9.4050912      8.1238046

 **********************************************************************

            Population analysis using the SCF density.

 **********************************************************************

 Orbital symmetries:
       Occupied  (A) (A) (A) (A) (A) (A) (A) (A) (A) (A) (A) (A)
                 (A)
       Virtual   (A) (A) (A) (A) (A) (A) (A) (A) (A) (A) (A) (A)
                 (A) (A) (A) (A) (A) (A) (A) (A) (A) (A) (A) (A)
                 (A) (A)
 The electronic state is 1-A.
 Alpha  occ. eigenvalues --  -20.43282 -11.21680 -11.15050  -1.33490  -1.01252
 Alpha  occ. eigenvalues --   -0.83634  -0.67939  -0.64370  -0.55124  -0.52622
 Alpha  occ. eigenvalues --   -0.51914  -0.46974  -0.42844
 Alpha virt. eigenvalues --    0.26350   0.30195   0.33622   0.34539   0.36239
 Alpha virt. eigenvalues --    0.38241   0.41532   0.44950   0.92340   0.96550
 Alpha virt. eigenvalues --    0.97391   1.02920   1.07222   1.12962   1.27212
 Alpha virt. eigenvalues --    1.31846   1.33435   1.37311   1.37777   1.42598
 Alpha virt. eigenvalues --    1.89262   1.93116   2.00529   2.16262   2.34327
 Alpha virt. eigenvalues --    3.37498
          Condensed to atoms (all electrons):
               1          2          3          4          5          6
     1  C    5.394473   0.374175   0.359514   0.374176   0.242309  -0.050400
     2  H    0.374175   0.494651  -0.023102  -0.025238  -0.043695   0.003809
     3  H    0.359514  -0.023102   0.535458  -0.023102  -0.042391   0.000815
     4  H    0.374176  -0.025238  -0.023102   0.494650  -0.043697  -0.003980
     5  C    0.242309  -0.043695  -0.042391  -0.043697   5.072548   0.361515
     6  H   -0.050400   0.003809   0.000815  -0.003980   0.361515   0.588015
     7  H   -0.050394  -0.003980   0.000815   0.003809   0.361515  -0.046713
     8  O   -0.048943   0.002332   0.001555   0.002332   0.227383  -0.034320
     9  H    0.005307  -0.000097  -0.000143  -0.000097  -0.043030  -0.002053
               7          8          9
     1  C   -0.050394  -0.048943   0.005307
     2  H   -0.003980   0.002332  -0.000097
     3  H    0.000815   0.001555  -0.000143
     4  H    0.003809   0.002332  -0.000097
     5  C    0.361515   0.227383  -0.043030
     6  H   -0.046713  -0.034320  -0.002053
     7  H    0.588012  -0.034319  -0.002054
     8  O   -0.034319   8.298139   0.265275
     9  H   -0.002054   0.265275   0.404277
 Mulliken charges:
               1
     1  C   -0.600218
     2  H    0.221145
     3  H    0.190581
     4  H    0.221146
     5  C   -0.092458
     6  H    0.183312
     7  H    0.183310
     8  O   -0.679433
     9  H    0.372615
 Sum of Mulliken charges =   0.00000
 Mulliken charges with hydrogens summed into heavy atoms:
               1
     1  C    0.032654
     5  C    0.274164
     8  O   -0.306818
 Electronic spatial extent (au):  <R**2>=            193.5287
 Charge=              0.0000 electrons
 Dipole moment (field-independent basis, Debye):
    X=             -0.2036    Y=              1.9254    Z=              0.0001  Tot=              1.9362
 Quadrupole moment (field-independent basis, Debye-Ang):
   XX=            -16.7106   YY=            -20.5900   ZZ=            -20.0091
   XY=             -2.1439   XZ=             -0.0003   YZ=              0.0000
 Traceless Quadrupole moment (field-independent basis, Debye-Ang):
   XX=              2.3926   YY=             -1.4867   ZZ=             -0.9059
   XY=             -2.1439   XZ=             -0.0003   YZ=              0.0000
 Octapole moment (field-independent basis, Debye-Ang**2):
  XXX=            -17.3902  YYY=             -0.7610  ZZZ=              0.0000  XYY=             -0.8021
  XXY=              2.4653  XXZ=              0.0006  XZZ=             -1.7779  YZZ=             -0.6073
  YYZ=              0.0000  XYZ=              0.0000
 Hexadecapole moment (field-independent basis, Debye-Ang**3):
 XXXX=           -127.2051 YYYY=            -55.7819 ZZZZ=            -30.5122 XXXY=              0.2469
 XXXZ=             -0.0011 YYYX=              1.1140 YYYZ=              0.0001 ZZZX=             -0.0001
 ZZZY=              0.0000 XXYY=            -35.3976 XXZZ=            -31.5097 YYZZ=            -13.0597
 XXYZ=              0.0000 YYXZ=             -0.0001 ZZXY=             -0.6243
 N-N= 8.160103086549D+01 E-N=-5.229218278828D+02  KE= 1.528779081177D+02
 1|1|UNPC-XIMOLAPTOP07|FOpt|RHF|3-21G|C2H6O1|LORINCZK|25-Oct-2025|0||# 
 opt freq hf/3-21g geom=connectivity||title by user||0,1|C,-1.072425402
 7,-0.0490064805,0.0186059077|H,-0.7219816244,-1.0725168565,0.037871454
 3|H,-0.733650404,0.4278984533,-0.8936801692|H,-2.1542594576,-0.0577530
 889,0.0364792006|C,-0.5500175913,0.6900484862,1.2453024306|H,-0.898870
 086,1.7177412735,1.2396748444|H,0.535214992,0.7017194046,1.2411147906|
 O,-1.0573489927,-0.0244027618,2.3930174197|H,-0.7637056533,0.39108223,
 3.2142804012||Version=IA32W-G09RevD.01|State=1-A|HF=-153.2226807|RMSD=
 5.013e-009|RMSF=9.180e-005|Dipole=0.4402663,0.621338,0.01887|Quadrupol
 e=-0.7274546,-0.7769721,1.5044267,-0.0747398,1.0420251,1.4733837|PG=C0
 1 [X(C2H6O1)]||@


 A true friend is someone who is there for
 you when he'd rather be anywhere else.
                               -- Len Wein
 Job cpu time:       0 days  0 hours  0 minutes 18.0 seconds.
 File lengths (MBytes):  RWF=      5 Int=      0 D2E=      0 Chk=      1 Scr=      1
 Normal termination of Gaussian 09 at Sat Oct 25 15:30:58 2025.
 Link1:  Proceeding to internal job step number  2.
 --------------------------------------------------------------
 #N Geom=AllCheck Guess=TCheck SCRF=Check GenChk RHF/3-21G Freq
 --------------------------------------------------------------
 1/10=4,29=7,30=1,38=1,40=1/1,3;
 2/12=2,40=1/2;
 3/5=5,11=1,14=-4,16=1,25=1,30=1,70=2,71=2,116=1,140=1/1,2,3;
 4/5=101/1;
 5/5=2,98=1/2;
 8/6=4,10=90,11=11/1;
 10/13=10,15=4/2;
 11/6=3,8=1,9=11,15=111,16=1/1,2,10;
 10/6=1/2;
 6/7=2,8=2,9=2,10=2,18=1,28=1/1;
 7/8=1,10=1,25=1/1,2,3,16;
 1/10=4,30=1/3;
 99//99;
 Structure from the checkpoint file:  "C:\Grég_ethanol\ethanol_connectivity.chk"
 -------------
 title by user
 -------------
 Charge =  0 Multiplicity = 1
 Redundant internal coordinates found in file.
 C,0,-1.0724254027,-0.0490064805,0.0186059077
 H,0,-0.7219816244,-1.0725168565,0.0378714543
 H,0,-0.733650404,0.4278984533,-0.8936801692
 H,0,-2.1542594576,-0.0577530889,0.0364792006
 C,0,-0.5500175913,0.6900484862,1.2453024306
 H,0,-0.898870086,1.7177412735,1.2396748444
 H,0,0.535214992,0.7017194046,1.2411147906
 O,0,-1.0573489927,-0.0244027618,2.3930174197
 H,0,-0.7637056533,0.39108223,3.2142804012
 Recover connectivity data from disk.

 GradGradGradGradGradGradGradGradGradGradGradGradGradGradGradGradGradGrad
 Berny optimization.
 Initialization pass.
                           ----------------------------
                           !    Initial Parameters    !
                           ! (Angstroms and Degrees)  !
 --------------------------                            --------------------------
 ! Name  Definition              Value          Derivative Info.                !
 --------------------------------------------------------------------------------
 ! R1    R(1,2)                  1.082          calculate D2E/DX2 analytically  !
 ! R2    R(1,3)                  1.0837         calculate D2E/DX2 analytically  !
 ! R3    R(1,4)                  1.082          calculate D2E/DX2 analytically  !
 ! R4    R(1,5)                  1.5244         calculate D2E/DX2 analytically  !
 ! R5    R(5,6)                  1.0853         calculate D2E/DX2 analytically  !
 ! R6    R(5,7)                  1.0853         calculate D2E/DX2 analytically  !
 ! R7    R(5,8)                  1.444          calculate D2E/DX2 analytically  !
 ! R8    R(8,9)                  0.9661         calculate D2E/DX2 analytically  !
 ! A1    A(2,1,3)              109.2692         calculate D2E/DX2 analytically  !
 ! A2    A(2,1,4)              108.4143         calculate D2E/DX2 analytically  !
 ! A3    A(2,1,5)              109.4677         calculate D2E/DX2 analytically  !
 ! A4    A(3,1,4)              109.2694         calculate D2E/DX2 analytically  !
 ! A5    A(3,1,5)              110.9112         calculate D2E/DX2 analytically  !
 ! A6    A(4,1,5)              109.4667         calculate D2E/DX2 analytically  !
 ! A7    A(1,5,6)              110.1664         calculate D2E/DX2 analytically  !
 ! A8    A(1,5,7)              110.1681         calculate D2E/DX2 analytically  !
 ! A9    A(1,5,8)              106.2194         calculate D2E/DX2 analytically  !
 ! A10   A(6,5,7)              108.1321         calculate D2E/DX2 analytically  !
 ! A11   A(6,5,8)              111.082          calculate D2E/DX2 analytically  !
 ! A12   A(7,5,8)              111.0822         calculate D2E/DX2 analytically  !
 ! A13   A(5,8,9)              110.8606         calculate D2E/DX2 analytically  !
 ! D1    D(2,1,5,6)           -179.7451         calculate D2E/DX2 analytically  !
 ! D2    D(2,1,5,7)             61.0401         calculate D2E/DX2 analytically  !
 ! D3    D(2,1,5,8)            -59.3531         calculate D2E/DX2 analytically  !
 ! D4    D(3,1,5,6)             59.6071         calculate D2E/DX2 analytically  !
 ! D5    D(3,1,5,7)            -59.6077         calculate D2E/DX2 analytically  !
 ! D6    D(3,1,5,8)            179.9991         calculate D2E/DX2 analytically  !
 ! D7    D(4,1,5,6)            -61.0403         calculate D2E/DX2 analytically  !
 ! D8    D(4,1,5,7)            179.7449         calculate D2E/DX2 analytically  !
 ! D9    D(4,1,5,8)             59.3517         calculate D2E/DX2 analytically  !
 ! D10   D(1,5,8,9)            179.9956         calculate D2E/DX2 analytically  !
 ! D11   D(6,5,8,9)            -60.207          calculate D2E/DX2 analytically  !
 ! D12   D(7,5,8,9)             60.196          calculate D2E/DX2 analytically  !
 --------------------------------------------------------------------------------
 Trust Radius=3.00D-01 FncErr=1.00D-07 GrdErr=1.00D-07
 Number of steps in this run=      2 maximum allowed number of steps=      2.
 GradGradGradGradGradGradGradGradGradGradGradGradGradGradGradGradGradGrad

                          Input orientation:                          
 ---------------------------------------------------------------------
 Center     Atomic      Atomic             Coordinates (Angstroms)
 Number     Number       Type             X           Y           Z
 ---------------------------------------------------------------------
      1          6           0       -1.072425   -0.049006    0.018606
      2          1           0       -0.721982   -1.072517    0.037871
      3          1           0       -0.733650    0.427898   -0.893680
      4          1           0       -2.154259   -0.057753    0.036479
      5          6           0       -0.550018    0.690048    1.245302
      6          1           0       -0.898870    1.717741    1.239675
      7          1           0        0.535215    0.701719    1.241115
      8          8           0       -1.057349   -0.024403    2.393017
      9          1           0       -0.763706    0.391082    3.214280
 ---------------------------------------------------------------------
                    Distance matrix (angstroms):
                    1          2          3          4          5
     1  C    0.000000
     2  H    1.082015   0.000000
     3  H    1.083731   1.766117   0.000000
     4  H    1.082017   1.755325   1.766121   0.000000
     5  C    1.524433   2.143385   2.162797   2.143374   0.000000
     6  H    2.154653   3.043216   2.498439   2.485168   1.085303
     7  H    2.154675   2.485207   2.498469   3.043225   1.085303
     8  O    2.374587   2.599563   3.333427   2.599538   1.443979
     9  H    3.240574   3.497633   4.108235   3.497644   2.002977
                    6          7          8          9
     6  H    0.000000
     7  H    1.757527   0.000000
     8  O    2.095323   2.095326   0.000000
     9  H    2.382721   2.382661   0.966089   0.000000
 Stoichiometry    C2H6O
 Framework group  C1[X(C2H6O)]
 Deg. of freedom    21
 Full point group                 C1      NOp   1
 Largest Abelian subgroup         C1      NOp   1
 Largest concise Abelian subgroup C1      NOp   1
                         Standard orientation:                         
 ---------------------------------------------------------------------
 Center     Atomic      Atomic             Coordinates (Angstroms)
 Number     Number       Type             X           Y           Z
 ---------------------------------------------------------------------
      1          6           0        1.219651   -0.233443    0.000005
      2          1           0        1.252059   -0.865430    0.877671
      3          1           0        2.081898    0.423065   -0.000006
      4          1           0        1.252041   -0.865444   -0.877654
      5          6           0       -0.075905    0.569943   -0.000002
      6          1           0       -0.122257    1.205151   -0.878777
      7          1           0       -0.122286    1.205180    0.878751
      8          8           0       -1.149376   -0.395839   -0.000008
      9          1           0       -2.008922    0.045191    0.000056
 ---------------------------------------------------------------------
 Rotational constants (GHZ):     34.3950240      9.4050912      8.1238046
 Standard basis: 3-21G (6D, 7F)
 There are    39 symmetry adapted cartesian basis functions of A   symmetry.
 There are    39 symmetry adapted basis functions of A   symmetry.
    39 basis functions,    63 primitive gaussians,    39 cartesian basis functions
    13 alpha electrons       13 beta electrons
       nuclear repulsion energy        81.6010308655 Hartrees.
 NAtoms=    9 NActive=    9 NUniq=    9 SFac= 1.00D+00 NAtFMM=   60 NAOKFM=F Big=F
 Integral buffers will be    262144 words long.
 Raffenetti 1 integral format.
 Two-electron integral symmetry is turned on.
 One-electron integrals computed using PRISM.
 NBasis=    39 RedAO= T EigKep=  1.61D-02  NBF=    39
 NBsUse=    39 1.00D-06 EigRej= -1.00D+00 NBFU=    39
 Initial guess from the checkpoint file:  "C:\Grég_ethanol\ethanol_connectivity.chk"
 B after Tr=     0.000000    0.000000    0.000000
         Rot=    1.000000    0.000000    0.000000    0.000000 Ang=   0.00 deg.
 Keep R1 ints in memory in canonical form, NReq=1139693.
 Requested convergence on RMS density matrix=1.00D-08 within 128 cycles.
 Requested convergence on MAX density matrix=1.00D-06.
 Requested convergence on             energy=1.00D-06.
 No special actions if energy rises.
 SCF Done:  E(RHF) =  -153.222680685     A.U. after    1 cycles
            NFock=  1  Conv=0.13D-08     -V/T= 2.0023
 Range of M.O.s used for correlation:     1    39
 NBasis=    39 NAE=    13 NBE=    13 NFC=     0 NFV=     0
 NROrb=     39 NOA=    13 NOB=    13 NVA=    26 NVB=    26
          Differentiating once with respect to electric field.
                with respect to dipole field.
          Electric field/nuclear overlap derivatives assumed to be zero.
 Keep R1 ints in memory in canonical form, NReq=1120265.
          There are     3 degrees of freedom in the 1st order CPHF.  IDoFFX=0 NUNeed=     3.
      3 vectors produced by pass  0 Test12= 1.13D-14 3.33D-08 XBig12= 5.36D+00 1.09D+00.
 AX will form     3 AO Fock derivatives at one time.
      3 vectors produced by pass  1 Test12= 1.13D-14 3.33D-08 XBig12= 1.79D-01 1.21D-01.
      3 vectors produced by pass  2 Test12= 1.13D-14 3.33D-08 XBig12= 1.74D-02 3.31D-02.
      3 vectors produced by pass  3 Test12= 1.13D-14 3.33D-08 XBig12= 3.60D-04 5.86D-03.
      3 vectors produced by pass  4 Test12= 1.13D-14 3.33D-08 XBig12= 9.83D-06 9.88D-04.
      3 vectors produced by pass  5 Test12= 1.13D-14 3.33D-08 XBig12= 3.02D-07 1.71D-04.
      3 vectors produced by pass  6 Test12= 1.13D-14 3.33D-08 XBig12= 2.98D-09 1.63D-05.
      3 vectors produced by pass  7 Test12= 1.13D-14 3.33D-08 XBig12= 3.91D-11 2.37D-06.
      2 vectors produced by pass  8 Test12= 1.13D-14 3.33D-08 XBig12= 4.45D-13 1.85D-07.
 InvSVY:  IOpt=1 It=  1 EMax= 4.44D-16
 Solved reduced A of dimension    26 with     3 vectors.
 End of Minotr F.D. properties file   721 does not exist.
 End of Minotr F.D. properties file   722 does not exist.
 End of Minotr F.D. properties file   788 does not exist.
 Symmetrizing basis deriv contribution to polar:
 IMax=3 JMax=2 DiffMx= 0.00D+00
 G2DrvN: will do    10 centers at a time, making    1 passes.
 PxScal for G2LodP:  IOpCl= 0 ISclPx=1 IMOff=     1 NMtTot=     4 NTT=     780 ScalPx= 1.55D+00
 Calling FoFCou, ICntrl=  3107 FMM=F I1Cent=   0 AccDes= 0.00D+00.
 End of G2Drv F.D. properties file   721 does not exist.
 End of G2Drv F.D. properties file   722 does not exist.
 End of G2Drv F.D. properties file   788 does not exist.
          IDoAtm=111111111
          Differentiating once with respect to electric field.
                with respect to dipole field.
          Differentiating once with respect to nuclear coordinates.
 Keep R1 ints in memory in canonical form, NReq=1120382.
          There are    30 degrees of freedom in the 1st order CPHF.  IDoFFX=5 NUNeed=    30.
 Will reuse    3 saved solutions.
     24 vectors produced by pass  0 Test12= 1.13D-15 3.33D-09 XBig12= 3.88D-02 6.63D-02.
 AX will form    24 AO Fock derivatives at one time.
     24 vectors produced by pass  1 Test12= 1.13D-15 3.33D-09 XBig12= 9.50D-04 1.23D-02.
     24 vectors produced by pass  2 Test12= 1.13D-15 3.33D-09 XBig12= 1.97D-05 1.11D-03.
     24 vectors produced by pass  3 Test12= 1.13D-15 3.33D-09 XBig12= 8.77D-08 6.35D-05.
     24 vectors produced by pass  4 Test12= 1.13D-15 3.33D-09 XBig12= 3.46D-10 3.87D-06.
     24 vectors produced by pass  5 Test12= 1.13D-15 3.33D-09 XBig12= 1.49D-12 2.71D-07.
      8 vectors produced by pass  6 Test12= 1.13D-15 3.33D-09 XBig12= 4.06D-15 1.46D-08.
 InvSVY:  IOpt=1 It=  1 EMax= 6.66D-16
 Solved reduced A of dimension   152 with    24 vectors.
 Isotropic polarizability for W=    0.000000       23.48 Bohr**3.
 End of Minotr F.D. properties file   721 does not exist.
 End of Minotr F.D. properties file   722 does not exist.
 End of Minotr F.D. properties file   788 does not exist.

[...]
 Rotational constants (GHZ):          34.39502     9.40509     8.12380
 Zero-point vibrational energy     224063.9 (Joules/Mol)
                                   53.55255 (Kcal/Mol)
 Warning -- explicit consideration of   3 degrees of freedom as
           vibrations may cause significant error
 Vibrational temperatures:    366.99   451.46   612.73  1320.65  1369.50
          (Kelvin)           1560.79  1723.73  1845.04  1972.86  2063.65
                             2262.69  2279.95  2383.04  2409.31  2460.87
                             4575.01  4611.51  4621.66  4712.11  4731.48
                             5562.30
 
 Zero-point correction=                           0.085341 (Hartree/Particle)
 Thermal correction to Energy=                    0.089521
 Thermal correction to Enthalpy=                  0.090465
 Thermal correction to Gibbs Free Energy=         0.060011
 Sum of electronic and zero-point Energies=           -153.137339
 Sum of electronic and thermal Energies=              -153.133160
 Sum of electronic and thermal Enthalpies=            -153.132216
 Sum of electronic and thermal Free Energies=         -153.162670
 
                     E (Thermal)             CV                S
                      KCal/Mol        Cal/Mol-Kelvin    Cal/Mol-Kelvin
 Total                   56.175             12.786             64.096
 Electronic               0.000              0.000              0.000
 Translational            0.889              2.981             37.406
 Rotational               0.889              2.981             22.330
 Vibrational             54.398              6.824              4.360
 Vibration     1          0.665              1.754              1.695
 Vibration     2          0.702              1.647              1.342
 Vibration     3          0.788              1.414              0.872
                       Q            Log10(Q)             Ln(Q)
 Total Bot       0.249470D-27        -27.602982        -63.558215
 Total V=0       0.447985D+12         11.651264         26.828026
 Vib (Bot)       0.119998D-38        -38.920826        -89.618515
 Vib (Bot)    1  0.763320D+00         -0.117294         -0.270079
 Vib (Bot)    2  0.601305D+00         -0.220905         -0.508652
 Vib (Bot)    3  0.410449D+00         -0.386740         -0.890503
 Vib (V=0)       0.215486D+01          0.333419          0.767727
 Vib (V=0)    1  0.141250D+01          0.149989          0.345361
 Vib (V=0)    2  0.128203D+01          0.107898          0.248443
 Vib (V=0)    3  0.114689D+01          0.059522          0.137055
 Electronic      0.100000D+01          0.000000          0.000000
 Translational   0.122796D+08          7.089185         16.323451
 Rotational      0.169301D+05          4.228660          9.736849
 ***** Axes restored to original set *****
 -------------------------------------------------------------------
 Center     Atomic                   Forces (Hartrees/Bohr)
 Number     Number              X              Y              Z
 -------------------------------------------------------------------
      1        6          -0.000032006   -0.000044702    0.000001862
      2        1          -0.000026563   -0.000049199   -0.000051656
      3        1          -0.000005297   -0.000006873    0.000107551
      4        1          -0.000035812   -0.000041734   -0.000052600
      5        6           0.000195894    0.000279370   -0.000214229
      6        1           0.000002066   -0.000024144    0.000041513
      7        1          -0.000024302   -0.000007888    0.000039362
      8        8          -0.000059572   -0.000085341    0.000150114
      9        1          -0.000014407   -0.000019490   -0.000021917
 -------------------------------------------------------------------
 Cartesian Forces:  Max     0.000279370 RMS     0.000091796
 FormGI is forming the generalized inverse of G from B-inverse, IUseBI=4.

 GradGradGradGradGradGradGradGradGradGradGradGradGradGradGradGradGradGrad
 Berny optimization.
 Internal  Forces:  Max     0.000179755 RMS     0.000057561
 Search for a local minimum.
 Step number   1 out of a maximum of    2
 All quantities printed in internal units (Hartrees-Bohrs-Radians)
 Second derivative matrix not updated -- analytic derivatives used.
 ITU=  0
     Eigenvalues ---    0.00251   0.00345   0.05347   0.05454   0.05960
     Eigenvalues ---    0.07266   0.11868   0.14408   0.14901   0.16213
     Eigenvalues ---    0.18522   0.20046   0.27108   0.32135   0.35664
     Eigenvalues ---    0.36411   0.37358   0.37585   0.38594   0.41635
     Eigenvalues ---    0.53884
 Angle between quadratic step and forces=  34.84 degrees.
 Linear search not attempted -- first point.
 Iteration  1 RMS(Cart)=  0.00026609 RMS(Int)=  0.00000009
 Iteration  2 RMS(Cart)=  0.00000007 RMS(Int)=  0.00000007
 Variable       Old X    -DE/DX   Delta X   Delta X   Delta X     New X
                                 (Linear)    (Quad)   (Total)
    R1        2.04471   0.00004   0.00000   0.00008   0.00008   2.04479
    R2        2.04795  -0.00010   0.00000  -0.00020  -0.00020   2.04775
    R3        2.04472   0.00004   0.00000   0.00007   0.00007   2.04479
    R4        2.88076   0.00010   0.00000   0.00021   0.00021   2.88097
    R5        2.05093  -0.00002   0.00000  -0.00012  -0.00012   2.05081
    R6        2.05093  -0.00002   0.00000  -0.00012  -0.00012   2.05081
    R7        2.72872   0.00018   0.00000   0.00069   0.00069   2.72941
    R8        1.82564  -0.00003   0.00000  -0.00004  -0.00004   1.82560
    A1        1.90711  -0.00001   0.00000  -0.00009  -0.00009   1.90702
    A2        1.89219  -0.00007   0.00000  -0.00021  -0.00021   1.89197
    A3        1.91057   0.00010   0.00000   0.00048   0.00048   1.91106
    A4        1.90711  -0.00001   0.00000  -0.00009  -0.00009   1.90702
    A5        1.93577  -0.00011   0.00000  -0.00059  -0.00059   1.93518
    A6        1.91055   0.00010   0.00000   0.00050   0.00050   1.91106
    A7        1.92277   0.00005   0.00000   0.00032   0.00032   1.92308
    A8        1.92280   0.00005   0.00000   0.00029   0.00029   1.92308
    A9        1.85388  -0.00009   0.00000  -0.00037  -0.00037   1.85351
   A10        1.88726  -0.00001   0.00000   0.00029   0.00029   1.88755
   A11        1.93875   0.00000   0.00000  -0.00026  -0.00026   1.93849
   A12        1.93875   0.00000   0.00000  -0.00026  -0.00026   1.93849
   A13        1.93488   0.00002   0.00000  -0.00003  -0.00003   1.93486
    D1       -3.13714   0.00001   0.00000   0.00020   0.00020  -3.13694
    D2        1.06535  -0.00004   0.00000  -0.00053  -0.00053   1.06482
    D3       -1.03591  -0.00001   0.00000  -0.00015  -0.00015  -1.03606
    D4        1.04034   0.00002   0.00000   0.00037   0.00037   1.04071
    D5       -1.04035  -0.00002   0.00000  -0.00036  -0.00036  -1.04071
    D6        3.14158   0.00000   0.00000   0.00002   0.00002   3.14159
    D7       -1.06535   0.00004   0.00000   0.00053   0.00053  -1.06482
    D8        3.13714  -0.00001   0.00000  -0.00020  -0.00020   3.13694
    D9        1.03588   0.00001   0.00000   0.00018   0.00018   1.03606
   D10        3.14152   0.00000   0.00000   0.00008   0.00008   3.14159
   D11       -1.05081   0.00001   0.00000   0.00009   0.00009  -1.05072
   D12        1.05062  -0.00001   0.00000   0.00010   0.00010   1.05072
         Item               Value     Threshold  Converged?
 Maximum Force            0.000180     0.000450     YES
 RMS     Force            0.000058     0.000300     YES
 Maximum Displacement     0.000564     0.001800     YES
 RMS     Displacement     0.000266     0.001200     YES
 Predicted change in Energy=-2.360772D-07
 Optimization completed.
    -- Stationary point found.
                           ----------------------------
                           !   Optimized Parameters   !
                           ! (Angstroms and Degrees)  !
 --------------------------                            --------------------------
 ! Name  Definition              Value          Derivative Info.                !
 --------------------------------------------------------------------------------
 ! R1    R(1,2)                  1.082          -DE/DX =    0.0                 !
 ! R2    R(1,3)                  1.0837         -DE/DX =   -0.0001              !
 ! R3    R(1,4)                  1.082          -DE/DX =    0.0                 !
 ! R4    R(1,5)                  1.5244         -DE/DX =    0.0001              !
 ! R5    R(5,6)                  1.0853         -DE/DX =    0.0                 !
 ! R6    R(5,7)                  1.0853         -DE/DX =    0.0                 !
 ! R7    R(5,8)                  1.444          -DE/DX =    0.0002              !
 ! R8    R(8,9)                  0.9661         -DE/DX =    0.0                 !
 ! A1    A(2,1,3)              109.2692         -DE/DX =    0.0                 !
 ! A2    A(2,1,4)              108.4143         -DE/DX =   -0.0001              !
 ! A3    A(2,1,5)              109.4677         -DE/DX =    0.0001              !
 ! A4    A(3,1,4)              109.2694         -DE/DX =    0.0                 !
 ! A5    A(3,1,5)              110.9112         -DE/DX =   -0.0001              !
 ! A6    A(4,1,5)              109.4667         -DE/DX =    0.0001              !
 ! A7    A(1,5,6)              110.1664         -DE/DX =    0.0001              !
 ! A8    A(1,5,7)              110.1681         -DE/DX =    0.0                 !
 ! A9    A(1,5,8)              106.2194         -DE/DX =   -0.0001              !
 ! A10   A(6,5,7)              108.1321         -DE/DX =    0.0                 !
 ! A11   A(6,5,8)              111.082          -DE/DX =    0.0                 !
 ! A12   A(7,5,8)              111.0822         -DE/DX =    0.0                 !
 ! A13   A(5,8,9)              110.8606         -DE/DX =    0.0                 !
 ! D1    D(2,1,5,6)           -179.7451         -DE/DX =    0.0                 !
 ! D2    D(2,1,5,7)             61.0401         -DE/DX =    0.0                 !
 ! D3    D(2,1,5,8)            -59.3531         -DE/DX =    0.0                 !
 ! D4    D(3,1,5,6)             59.6071         -DE/DX =    0.0                 !
 ! D5    D(3,1,5,7)            -59.6077         -DE/DX =    0.0                 !
 ! D6    D(3,1,5,8)            179.9991         -DE/DX =    0.0                 !
 ! D7    D(4,1,5,6)            -61.0403         -DE/DX =    0.0                 !
 ! D8    D(4,1,5,7)            179.7449         -DE/DX =    0.0                 !
 ! D9    D(4,1,5,8)             59.3517         -DE/DX =    0.0                 !
 ! D10   D(1,5,8,9)            179.9956         -DE/DX =    0.0                 !
 ! D11   D(6,5,8,9)            -60.207          -DE/DX =    0.0                 !
 ! D12   D(7,5,8,9)             60.196          -DE/DX =    0.0                 !
 --------------------------------------------------------------------------------
 GradGradGradGradGradGradGradGradGradGradGradGradGradGradGradGradGradGrad

 1|1|UNPC-XIMOLAPTOP07|Freq|RHF|3-21G|C2H6O1|LORINCZK|25-Oct-2025|0||#N
  Geom=AllCheck Guess=TCheck SCRF=Check GenChk RHF/3-21G Freq||title by
  user||0,1|C,-1.0724254027,-0.0490064805,0.0186059077|H,-0.7219816244,
 -1.0725168565,0.0378714543|H,-0.733650404,0.4278984533,-0.8936801692|H
 ,-2.1542594576,-0.0577530889,0.0364792006|C,-0.5500175913,0.6900484862
 ,1.2453024306|H,-0.898870086,1.7177412735,1.2396748444|H,0.535214992,0
 .7017194046,1.2411147906|O,-1.0573489927,-0.0244027618,2.3930174197|H,
 -0.7637056533,0.39108223,3.2142804012||Version=IA32W-G09RevD.01|State=
 1-A|HF=-153.2226807|RMSD=1.320e-009|RMSF=9.180e-005|ZeroPoint=0.085341
 4|Thermal=0.0895206|Dipole=0.4402663,0.621338,0.01887|DipoleDeriv=0.04
 63872,-0.020138,-0.0608294,-0.0201069,0.0321018,-0.0859466,-0.0376641,
 -0.0532422,-0.0006359,0.0531983,0.0710368,-0.0094937,0.0533039,-0.1139
 414,-0.0246215,-0.009476,0.0033849,0.0726206,0.0450623,-0.0392456,0.06
 75088,-0.039282,0.0176184,0.0950363,0.0414845,0.0583055,-0.1064519,-0.
 1344391,-0.0126616,-0.0203357,0.0051095,0.0736947,-0.0171144,0.006064,
 -0.0078345,0.0726299,0.4877715,-0.0464211,-0.0734853,-0.0464857,0.4548
 622,-0.1034934,-0.114275,-0.1610946,0.6768312,-0.0108542,0.0684006,0.0
 299362,0.0551417,-0.2235778,0.0079852,0.0188775,0.0029565,-0.0562963,-
 0.2388229,-0.0250173,-0.002611,-0.0117754,0.004453,0.0308182,-0.003708
 ,0.0187007,-0.0563537,-0.5882738,0.1051676,0.1624114,0.1051558,-0.5139
 505,0.229066,0.1429305,0.2015816,-0.7631739,0.3399707,-0.1011214,-0.09
 31014,-0.101061,0.2687396,-0.1317297,-0.0442333,-0.0627579,0.1608299|P
 olar=21.435942,0.8433648,22.0294676,0.3144453,0.4518896,26.9867785|Pol
 arDeriv=5.6162776,0.4352569,-2.8961117,0.3678926,-0.0185887,-3.024637,
 -0.3928384,-2.3103378,4.2314873,-0.0188009,0.338834,-4.2687719,-0.5698
 687,-0.0461213,-0.6184043,-2.5679131,-3.6229164,1.0421062,0.7228978,-2
 .5466953,1.2796751,-0.146399,0.1711818,0.8563286,-0.4485717,1.451858,-
 8.1356506,0.1130925,-0.8279217,-0.1325424,0.1957919,0.0266306,-0.04355
 19,1.2277644,-1.8171462,-0.4545311,0.7155596,0.9933806,0.71704,-2.4747
 959,-0.1358324,1.2469211,0.3502995,1.174888,1.6643742,-0.136206,-2.566
 5049,1.7561289,-0.2735309,-0.0701187,-0.3193237,1.4333275,2.0162166,-7
 .5603239,-8.6650806,-0.5996923,-0.0957591,-0.8492982,-0.133149,-0.4103
 537,-0.0657278,-2.1317308,-0.8912967,-0.074333,-0.1331171,0.7635716,-0
 .0395924,-0.0555794,0.1878707,-2.1218929,0.5550648,-0.4622558,-5.96567
 87,-0.016814,2.3308366,-0.1985799,0.0968946,3.7788953,-0.5807646,2.731
 6829,-4.5471616,0.093725,-0.1144825,5.3342559,1.247869,-0.059484,1.219
 8789,1.8206265,2.5683376,0.0039744,-0.7052164,2.4963102,-1.2566381,0.0
 405142,-0.2681205,-0.8319489,0.56895,-1.6451158,8.7635938,-0.133724,-0
 .0245561,0.1013155,0.1385677,-0.0070488,-0.3364155,-1.0867961,2.441749
 6,-0.1643921,9.3032637,0.6197914,0.1514966,0.1160589,-0.1085587,0.3721
 685,0.3470766,2.0986915,0.8970772,-0.2422899,-0.0912984,-0.7518812,-0.
 2747911,-0.1524425,0.0808903,2.6643472,-0.2160937,-0.1556895,-1.740134
 8,-1.9928862,-0.2944954,0.9484903,0.3133556,-4.5750542,0.2289164,-1.87
 01935,-3.0991575,0.3184651,1.161077,-6.4620716,-0.3702422,0.2688222,-0
 .1854255,-2.3357847,-3.3001799,-2.6892508,0.7181117,0.6113485,0.063955
 9,2.196117,0.0828173,2.5876804,-0.00734,0.5002575,1.1167339,0.0800713,
 2.2579696,3.6599954,-0.0542033,0.0953418,0.014481,0.9663211,1.3749676,
 10.4403626|HyperPolar=6.1012706,3.9764513,3.9930835,10.2233007,-9.3594
 57,-4.3421992,-12.3631684,19.0957665,26.9556092,-7.9108825|PG=C01 [X(C
 2H6O1)]|NImag=0||0.63755441,-0.02156161,0.62229078,-0.04030573,-0.0570
 0271,0.56757619,-0.09167684,0.09130536,-0.00209586,0.09455199,0.088576
 92,-0.31268254,0.00509748,-0.09785604,0.34425709,-0.00275131,0.0102691
 8,-0.05861551,0.00570106,-0.00510217,0.06044974,-0.08770746,-0.0406028
 4,0.07456324,0.00380032,0.00495639,-0.01262428,0.08941996,-0.04060618,
 -0.11603689,0.10496961,-0.01322388,-0.01453969,0.03221843,0.04577907,0
 .12136254,0.07212425,0.10152712,-0.25646429,-0.00098476,0.00016609,0.0
 0078409,-0.08176791,-0.11509968,0.28276890,-0.34466988,-0.00033351,0.0
 0513356,-0.01208734,-0.00010122,0.00058486,-0.00998222,0.00013020,0.00
 046907,0.37803751,0.00240125,-0.05970431,-0.00028267,0.03864827,0.0014
 5984,-0.00109358,-0.01801911,-0.00080450,-0.00089599,0.00176596,0.0607
 9070,0.01022782,0.00081021,-0.05859563,-0.00127632,0.00018720,-0.00048
 389,0.03458419,-0.00122520,0.00083159,-0.00629363,0.00368900,0.0604268
 6,-0.11314890,-0.01877162,-0.02681918,0.00519435,0.00735507,0.01145573
 ,0.00359956,0.00859132,0.01299841,-0.01566231,-0.02506923,-0.03828587,
 0.64722348,-0.01878496,-0.12644245,-0.03791359,-0.01768746,-0.02192384
 ,-0.03656107,0.00855649,0.00962764,0.01831975,0.00001052,-0.00102179,-
 0.00131731,-0.03203321,0.62472054,-0.03604134,-0.05092865,-0.14164392,
 -0.00115237,0.00091006,-0.00225981,-0.01221601,-0.01726905,-0.02198633
 ,0.00122274,-0.00081974,-0.00230670,0.00739089,0.01020622,0.51634350,0
 .00531969,-0.01516456,-0.00154292,-0.00005910,-0.00202034,-0.00234485,
 0.00028043,0.00074467,0.00064209,0.00103274,-0.00022896,0.00103829,-0.
 10118925,0.09035391,0.00031867,0.10106508,0.00723210,-0.01672705,-0.00
 092914,-0.00153892,-0.00024025,-0.00309495,0.00031441,0.00042342,-0.00
 091208,-0.00054670,0.00050177,0.00082128,0.08668335,-0.29565401,-0.005
 46883,-0.09314587,0.32852086,0.01206245,-0.03412357,-0.00057422,-0.003
 18183,-0.00318910,-0.00543415,0.00072292,0.00104783,0.00091758,-0.0000
 2438,0.00130455,0.00138889,-0.00116927,-0.00757473,-0.06206769,-0.0029
 1782,-0.00015383,0.07228953,-0.01177156,0.00120711,-0.00038035,0.00080
 053,-0.00062770,0.00043020,0.00007674,0.00024027,-0.00107471,0.0008985
 2,-0.00120073,-0.00213268,-0.32963778,0.00637864,-0.00562739,-0.013795
 45,0.00213025,-0.00177235,0.36178566,-0.02122009,0.00041270,-0.0017917
 4,-0.00031012,0.00073321,0.00125214,0.00067323,0.00062867,0.00030444,-
 0.00168325,-0.00119924,-0.00324454,0.01004464,-0.06719352,-0.00149408,
 0.03912430,0.00070454,0.00064756,-0.00149897,0.06779053,-0.03618658,0.
 00006630,-0.00061993,0.00123840,0.00040929,0.00138949,0.00074716,0.001
 02999,0.00091582,-0.00194372,-0.00406472,-0.00543277,-0.00712559,-0.00
 360138,-0.06208037,0.00113926,-0.00145219,0.00308461,0.00120956,-0.002
 80238,0.07229666,0.00711305,0.00532648,-0.01103959,-0.00030917,-0.0003
 1674,-0.00047745,-0.00027241,-0.00189502,-0.00312108,0.00217603,0.0017
 7453,0.00192922,-0.09979754,-0.04131390,0.02378112,0.00750409,-0.00179
 662,-0.00262058,-0.00822154,-0.02607365,0.03996153,0.15760612,0.005364
 72,0.01087868,-0.01564889,0.00090051,0.00269229,0.00188112,-0.00189489
 ,-0.00161353,-0.00441562,0.00055843,0.00020535,0.00017719,-0.04126874,
 -0.12869643,0.03340078,-0.02059610,-0.01796133,0.04140611,-0.00730712,
 -0.00228313,0.01123914,0.15322054,0.26542929,0.01665418,0.02343859,-0.
 04571031,0.00154344,0.00129529,0.00359139,-0.00313729,-0.00443877,-0.0
 0666895,0.00070803,0.00189111,0.00359284,0.05816396,0.08192112,-0.1946
 3329,0.00472281,0.01093415,-0.01144085,0.00875963,0.00803739,-0.011394
 15,0.05773021,0.08225801,0.64779336,-0.00101251,-0.00140481,0.00248684
 ,-0.00021475,0.00003366,0.00002604,0.00078508,0.00023957,0.00071463,0.
 00025695,-0.00007197,0.00020898,0.00341838,0.00451997,0.02232369,-0.00
 015823,0.00066799,-0.00109915,-0.00013512,0.00094389,0.00095997,-0.065
 79864,-0.08897736,-0.14514498,0.06285884,-0.00140215,-0.00198890,0.003
 50165,-0.00023772,0.00024388,0.00023091,0.00023726,0.00095234,0.001005
 97,0.00019957,-0.00022783,0.00010216,0.00446841,0.00658386,0.03146329,
 0.00093294,0.00043205,0.00063519,0.00067825,0.00040623,-0.00082406,-0.
 08892563,-0.12865118,-0.20533688,0.08404906,0.12224956,0.00421624,0.00
 594354,-0.00535237,0.00020824,0.00022586,0.00057866,-0.00087201,-0.001
 23316,-0.00109842,0.00014347,0.00027204,0.00057882,-0.01660908,-0.0234
 7901,-0.02936537,-0.00105554,0.00025558,0.00183631,0.00058810,-0.00090
 879,0.00184063,-0.10614340,-0.15029784,-0.38513005,0.11952398,0.169221
 78,0.41611180||0.00003201,0.00004470,-0.00000186,0.00002656,0.00004920
 ,0.00005166,0.00000530,0.00000687,-0.00010755,0.00003581,0.00004173,0.
 00005260,-0.00019589,-0.00027937,0.00021423,-0.00000207,0.00002414,-0.
 00004151,0.00002430,0.00000789,-0.00003936,0.00005957,0.00008534,-0.00
 015011,0.00001441,0.00001949,0.00002192|||@


 A true friend is someone who is there for
 you when he'd rather be anywhere else.
                               -- Len Wein
 Job cpu time:       0 days  0 hours  0 minutes  8.0 seconds.
 File lengths (MBytes):  RWF=      5 Int=      0 D2E=      0 Chk=      1 Scr=      1
 Normal termination of Gaussian 09 at Sat Oct 25 15:31:06 2025.
