 argument  1 = ethanol_opt_freq.nw



============================== echo of input deck ==============================
echo

start ethanol_opt_freq

memory 4096 mb

title "B3LYP-D3/def2-svp(ecp): optimization + freq"
charge 0

# input: hand-drawn, no conformer search
geometry
 C                 -1.07824429   -0.05725191    0.00000000
 H                 -0.72158987   -1.06606191    0.00000000
 H                 -0.72157145    0.44714628   -0.87365150
 H                 -2.14824429   -0.05723872    0.00000000
 C                 -0.56490207    0.66870437    1.25740497
 H                 -0.91995842    1.67807746    1.25642745
 H                  0.50509612    0.66699768    1.25838372
 O                 -1.04371032   -0.00388803    2.42499314
 H                 -0.72391963    0.44832544    3.20910850
end

basis
  * library def2-svp
end

dft
  xc b3lyp
  mult 1
  disp vdw 3
  grid fine
  direct
  noio
end

set driver:linopt 0
driver
  tight
  maxiter 500
end

task dft optimize
task dft freq


================================================================================


                                         
                                         


             Northwest Computational Chemistry Package (NWChem) 7.2.3
             --------------------------------------------------------


                    Environmental Molecular Sciences Laboratory
                       Pacific Northwest National Laboratory
                                Richland, WA 99352

                              Copyright (c) 1994-2022
                       Pacific Northwest National Laboratory
                            Battelle Memorial Institute

             NWChem is an open-source computational chemistry package
                        distributed under the terms of the
                      Educational Community License (ECL) 2.0
             A copy of the license is included with this distribution
                              in the LICENSE.TXT file

                                  ACKNOWLEDGMENT
                                  --------------

            This software and its documentation were developed at the
            EMSL at Pacific Northwest National Laboratory, a multiprogram
            national laboratory, operated for the U.S. Department of Energy
            by Battelle under Contract Number DE-AC05-76RL01830. Support
            for this work was provided by the Department of Energy Office
            of Biological and Environmental Research, Office of Basic
            Energy Sciences, and the Office of Advanced Scientific Computing.


           Job information
           ---------------

    hostname        = ximolaptop07
    program         = nwchem
    date            = Sun Oct 26 00:11:11 2025

    compiled        = Sat_Aug_31_17:24:42_2024
    source          = /home/conda/feedstock_root/build_artifacts/nwchem_1725118859004/work
    nwchem branch   = 7.2.3
    nwchem revision = 0ed2795
    ga revision     = 5.8.0
    use scalapack   = T
    input           = ethanol_opt_freq.nw
    prefix          = ethanol_opt_freq.
    data base       = ./ethanol_opt_freq.db
    status          = startup
    nproc           =        1
    time left       =     -1s



           Memory information
           ------------------

    heap     =  134217724 doubles =   1024.0 Mbytes
    stack    =  134217729 doubles =   1024.0 Mbytes
    global   =  268435456 doubles =   2048.0 Mbytes (distinct from heap & stack)
    total    =  536870909 doubles =   4096.0 Mbytes
    verify   = yes
    hardfail = no 


           Directory information
           ---------------------

  0 permanent = .
  0 scratch   = .




                                NWChem Input Module
                                -------------------


                    B3LYP-D3/def2-svp(ecp): optimization + freq
                    -------------------------------------------

 Scaling coordinates for geometry "geometry" by  1.889725989
 (inverse scale =  0.529177249)

 CS  symmetry detected

          ------
          auto-z
          ------
  no constraints, skipping    0.0000000000000000     
  no constraints, skipping    0.0000000000000000     


                             Geometry "geometry" -> ""
                             -------------------------

 Output coordinates in angstroms (scale by  1.889725989 to convert to a.u.)

  No.       Tag          Charge          X              Y              Z
 ---- ---------------- ---------- -------------- -------------- --------------
    1 C                    6.0000    -0.27069008    -1.24022737     0.00000000
    2 H                    1.0000    -0.88745886    -1.27527810     0.87364976
    3 H                    1.0000     0.39564626    -2.07742032     0.00000000
    4 H                    1.0000    -0.88745886    -1.27527810    -0.87364976
    5 C                    6.0000     0.54565516     0.06559822     0.00000000
    6 H                    1.0000     1.16242483     0.10064852    -0.87365133
    7 H                    1.0000     1.16242483     0.10064852     0.87365133
    8 O                    8.0000    -0.34487222     1.18446417     0.00000000
    9 H                    1.0000     0.16360912     1.99874099     0.00000000

      Atomic Mass 
      ----------- 

      C                 12.000000
      H                  1.007825
      O                 15.994910


 Effective nuclear repulsion energy (a.u.)      81.6946492156

            Nuclear Dipole moment (a.u.) 
            ----------------------------
        X                 Y               Z
 ---------------- ---------------- ----------------
     0.0000000000    -0.0000000000     0.0000000000

      Symmetry information
      --------------------

 Group name             Cs        
 Group number              2
 Group order               2
 No. of unique centers     7

      Symmetry unique atoms

     1    2    3    5    6    8    9



                                Z-matrix (autoz)
                                -------- 

 Units are Angstrom for bonds and degrees for angles

      Type          Name      I     J     K     L     M      Value
      ----------- --------  ----- ----- ----- ----- ----- ----------
    1 Stretch                  1     2                       1.07000
    2 Stretch                  1     3                       1.07000
    3 Stretch                  1     4                       1.07000
    4 Stretch                  1     5                       1.54000
    5 Stretch                  5     6                       1.07000
    6 Stretch                  5     7                       1.07000
    7 Stretch                  5     8                       1.43000
    8 Stretch                  8     9                       0.96000
    9 Bend                     1     5     6               109.47122
   10 Bend                     1     5     7               109.47122
   11 Bend                     1     5     8               109.47120
   12 Bend                     2     1     3               109.47118
   13 Bend                     2     1     4               109.47120
   14 Bend                     2     1     5               109.47124
   15 Bend                     3     1     4               109.47118
   16 Bend                     3     1     5               109.47128
   17 Bend                     4     1     5               109.47124
   18 Bend                     5     8     9               109.50000
   19 Bend                     6     5     7               109.47122
   20 Bend                     6     5     8               109.47123
   21 Bend                     7     5     8               109.47123
   22 Torsion                  1     5     8     9         180.00000
   23 Torsion                  2     1     5     6         180.00000
   24 Torsion                  2     1     5     7          60.00000
   25 Torsion                  2     1     5     8         -60.00000
   26 Torsion                  3     1     5     6          60.00000
   27 Torsion                  3     1     5     7         -60.00000
   28 Torsion                  3     1     5     8         180.00000
   29 Torsion                  4     1     5     6         -60.00000
   30 Torsion                  4     1     5     7        -180.00000
   31 Torsion                  4     1     5     8          60.00000
   32 Torsion                  6     5     8     9         -60.00001
   33 Torsion                  7     5     8     9          60.00001


            XYZ format geometry
            -------------------
     9
 geometry
 C                    -0.27069008    -1.24022737     0.00000000
 H                    -0.88745886    -1.27527810     0.87364976
 H                     0.39564626    -2.07742032     0.00000000
 H                    -0.88745886    -1.27527810    -0.87364976
 C                     0.54565516     0.06559822     0.00000000
 H                     1.16242483     0.10064852    -0.87365133
 H                     1.16242483     0.10064852     0.87365133
 O                    -0.34487222     1.18446417     0.00000000
 H                     0.16360912     1.99874099     0.00000000

 ==============================================================================
                                internuclear distances
 ------------------------------------------------------------------------------
       center one      |      center two      | atomic units |  angstroms
 ------------------------------------------------------------------------------
    2 H                |   1 C                |     2.02200  |     1.07000
    3 H                |   1 C                |     2.02200  |     1.07000
    4 H                |   1 C                |     2.02200  |     1.07000
    5 C                |   1 C                |     2.91018  |     1.54000
    6 H                |   5 C                |     2.02201  |     1.07000
    7 H                |   5 C                |     2.02201  |     1.07000
    8 O                |   5 C                |     2.70231  |     1.43000
    9 H                |   8 O                |     1.81414  |     0.96000
 ------------------------------------------------------------------------------
                         number of included internuclear distances:          8
 ==============================================================================



 ==============================================================================
                                 internuclear angles
 ------------------------------------------------------------------------------
        center 1       |       center 2       |       center 3       |  degrees
 ------------------------------------------------------------------------------
    2 H                |   1 C                |   3 H                |   109.47
    2 H                |   1 C                |   4 H                |   109.47
    2 H                |   1 C                |   5 C                |   109.47
    3 H                |   1 C                |   4 H                |   109.47
    3 H                |   1 C                |   5 C                |   109.47
    4 H                |   1 C                |   5 C                |   109.47
    1 C                |   5 C                |   6 H                |   109.47
    1 C                |   5 C                |   7 H                |   109.47
    1 C                |   5 C                |   8 O                |   109.47
    6 H                |   5 C                |   7 H                |   109.47
    6 H                |   5 C                |   8 O                |   109.47
    7 H                |   5 C                |   8 O                |   109.47
    5 C                |   8 O                |   9 H                |   109.50
 ------------------------------------------------------------------------------
                            number of included internuclear angles:         13
 ==============================================================================



  library name resolved from: environment
  library file name is: </home/lorinczkx/miniconda3/share/nwchem/libraries/>
  


 Summary of "ao basis" -> "" (cartesian)
 ------------------------------------------------------------------------------
       Tag                 Description            Shells   Functions and Types
 ---------------- ------------------------------  ------  ---------------------
 *                          def2-svp                  on all atoms 




                           NWChem Geometry Optimization
                           ----------------------------




                    B3LYP-D3/def2-svp(ecp): optimization + freq


  no constraints, skipping    0.0000000000000000     
 maximum gradient threshold         (gmax) =   0.000015
 rms gradient threshold             (grms) =   0.000010
 maximum cartesian step threshold   (xmax) =   0.000060
 rms cartesian step threshold       (xrms) =   0.000040
 fixed trust radius                (trust) =   0.300000
 maximum step size to saddle      (sadstp) =   0.100000
 energy precision                  (eprec) =   5.0D-06
 maximum number of steps          (nptopt) =  500
 initial hessian option           (inhess) =    0
 line search option               (linopt) =    0
 hessian update option            (modupd) =    1
 saddle point option              (modsad) =    0
 initial eigen-mode to follow     (moddir) =    0
 initial variable to follow       (vardir) =    0
 follow first negative mode     (firstneg) =    T
 apply conjugacy                    (opcg) =    F
 source of zmatrix                         =   autoz   


          -------------------
          Energy Minimization
          -------------------


 Names of Z-matrix variables 
    1              2              3              4              5         
    6              7              8              9             10         
   11             12             13             14             15         
   16             17             18             19             20         
   21             22             23             24             25         
   26             27             28             29             30         
   31             32             33         

 Variables with the same non-blank name are constrained to be equal


 Using diagonal initial Hessian 
 Scaling for Hessian diagonals: bonds = 1.00  angles = 0.25  torsions = 0.10

          --------
          Step   0
          --------


                         Geometry "geometry" -> "geometry"
                         ---------------------------------

 Output coordinates in angstroms (scale by  1.889725989 to convert to a.u.)

  No.       Tag          Charge          X              Y              Z
 ---- ---------------- ---------- -------------- -------------- --------------
    1 C                    6.0000    -0.27069008    -1.24022737     0.00000000
    2 H                    1.0000    -0.88745886    -1.27527810     0.87364976
    3 H                    1.0000     0.39564626    -2.07742032     0.00000000
    4 H                    1.0000    -0.88745886    -1.27527810    -0.87364976
    5 C                    6.0000     0.54565516     0.06559822     0.00000000
    6 H                    1.0000     1.16242483     0.10064852    -0.87365133
    7 H                    1.0000     1.16242483     0.10064852     0.87365133
    8 O                    8.0000    -0.34487222     1.18446417     0.00000000
    9 H                    1.0000     0.16360912     1.99874099     0.00000000

      Atomic Mass 
      ----------- 

      C                 12.000000
      H                  1.007825
      O                 15.994910


 Effective nuclear repulsion energy (a.u.)      81.6946492156

            Nuclear Dipole moment (a.u.) 
            ----------------------------
        X                 Y               Z
 ---------------- ---------------- ----------------
     0.0000000000    -0.0000000000     0.0000000000

      Symmetry information
      --------------------

 Group name             Cs        
 Group number              2
 Group order               2
 No. of unique centers     7

      Symmetry unique atoms

     1    2    3    5    6    8    9


                                 NWChem DFT Module
                                 -----------------


                    B3LYP-D3/def2-svp(ecp): optimization + freq


                      Basis "ao basis" -> "ao basis" (cartesian)
                      -----
  C (Carbon)
  ----------
            Exponent  Coefficients 
       -------------- ---------------------------------------------------------
  1 S  1.23840169E+03  0.005457
  1 S  1.86290050E+02  0.040638
  1 S  4.22511763E+01  0.180256
  1 S  1.16765579E+01  0.463151
  1 S  3.59305065E+00  0.440872

  2 S  4.02451474E-01  1.000000

  3 S  1.30901827E-01  1.000000

  4 P  9.46809706E+00  0.038388
  4 P  2.01035451E+00  0.211170
  4 P  5.47710047E-01  0.513282

  5 P  1.52686138E-01  1.000000

  6 D  8.00000000E-01  1.000000

  H (Hydrogen)
  ------------
            Exponent  Coefficients 
       -------------- ---------------------------------------------------------
  1 S  1.30107010E+01  0.019682
  1 S  1.96225720E+00  0.137965
  1 S  4.44537960E-01  0.478319

  2 S  1.21949620E-01  1.000000

  3 P  8.00000000E-01  1.000000

  O (Oxygen)
  ----------
            Exponent  Coefficients 
       -------------- ---------------------------------------------------------
  1 S  2.26617678E+03 -0.005343
  1 S  3.40870102E+02 -0.039890
  1 S  7.73631352E+01 -0.178539
  1 S  2.14796449E+01 -0.464277
  1 S  6.65894331E+00 -0.443097

  2 S  8.09759757E-01  1.000000

  3 S  2.55307722E-01  1.000000

  4 P  1.77215043E+01  0.043395
  4 P  3.86355054E+00  0.230941
  4 P  1.04809209E+00  0.513753

  5 P  2.76415444E-01  1.000000

  6 D  1.20000000E+00  1.000000



 Summary of "ao basis" -> "ao basis" (cartesian)
 ------------------------------------------------------------------------------
       Tag                 Description            Shells   Functions and Types
 ---------------- ------------------------------  ------  ---------------------
 C                          def2-svp                 6       15   3s2p1d
 H                          def2-svp                 3        5   2s1p
 O                          def2-svp                 6       15   3s2p1d




 Summary of "ao basis" -> "ao basis" (cartesian)
 ------------------------------------------------------------------------------
       Tag                 Description            Shells   Functions and Types
 ---------------- ------------------------------  ------  ---------------------
 C                          def2-svp                 6       15   3s2p1d
 H                          def2-svp                 3        5   2s1p
 O                          def2-svp                 6       15   3s2p1d


      Symmetry analysis of basis
      --------------------------

        a'         51
        a"         24

  Caching 1-el integrals 

            General Information
            -------------------
          SCF calculation type: DFT
          Wavefunction type:  closed shell.
          No. of atoms     :     9
          No. of electrons :    26
           Alpha electrons :    13
            Beta electrons :    13
          Charge           :     0
          Spin multiplicity:     1
          Use of symmetry is: on ; symmetry adaption is: on 
          Maximum number of iterations:  50
          This is a Direct SCF calculation.
          AO basis - number of functions:    75
                     number of shells:    36
          Convergence on energy requested:  1.00D-06
          Convergence on density requested:  1.00D-05
          Convergence on gradient requested:  5.00D-04

              XC Information
              --------------
                         B3LYP Method XC Potential
                     Hartree-Fock (Exact) Exchange  0.200          
                        Slater Exchange Functional  0.800 local    
                    Becke 1988 Exchange Functional  0.720 non-local
              Lee-Yang-Parr Correlation Functional  0.810          
                  VWN I RPA Correlation Functional  0.190 local    

             Grid Information
             ----------------
          Grid used for XC integration:  fine      
          Radial quadrature: Mura-Knowles        
          Angular quadrature: Lebedev. 
          Tag              B.-S. Rad. Rad. Pts. Rad. Cut. Ang. Pts.
          ---              ---------- --------- --------- ---------
          C                   0.70       70          10.0       590
          H                   0.35       60          11.0       590
          O                   0.60       70          10.0       590
          Grid pruning is: on 
          Number of quadrature shells:   450
          Spatial weights used:  Erf1

          Convergence Information
          -----------------------
          Convergence aids based upon iterative change in 
          total energy or number of iterations. 
          Levelshifting, if invoked, occurs when the 
          HOMO/LUMO gap drops below (HL_TOL):  1.00D-02
          DIIS, if invoked, will attempt to extrapolate 
          using up to (NFOCK): 10 stored Fock matrices.

                    Damping( 0%)  Levelshifting(0.5)       DIIS
                  --------------- ------------------- ---------------
          dE  on:    start            ASAP                start   
          dE off:    2 iters         50 iters            50 iters 


      Screening Tolerance Information
      -------------------------------
          Density screening/tol_rho:  1.00D-10
          AO Gaussian exp screening on grid/accAOfunc:  14
          CD Gaussian exp screening on grid/accCDfunc:  20
          XC Gaussian exp screening on grid/accXCfunc:  20
          Schwarz screening/accCoul:  1.00D-08

      Dispersion Parameters
      ---------------------

             DFT-D3 Model   
          s6 scale factor  :        1.000000000000
          s8 scale factor  :        1.703000000000
          sr6 scale factor :        1.261000000000
          sr8 scale factor :        1.000000000000
              vdW contrib  :       -0.003128481288


      Superposition of Atomic Density Guess
      -------------------------------------

 Sum of atomic energies:        -152.93644897

      Non-variational initial energy
      ------------------------------

 Total energy =    -154.678641
 1-e energy   =    -367.962370
 2-e energy   =     131.589079
 HOMO         =      -0.366907
 LUMO         =       0.097026


      Symmetry analysis of molecular orbitals - initial
      -------------------------------------------------

  Numbering of irreducible representations: 

     1 a'          2 a"      

  Orbital symmetries:

     1 a'          2 a'          3 a'          4 a'          5 a'      
     6 a'          7 a'          8 a"          9 a'         10 a'      
    11 a"         12 a'         13 a"         14 a'         15 a'      
    16 a'         17 a"         18 a'         19 a"         20 a'      
    21 a'         22 a"         23 a'      

  WARNING: movecs_in_org=atomic not equal to movecs_in=./ethanol_opt_freq.movecs
   Time after variat. SCF:      1.9
   Time prior to 1st pass:      1.9

 Grid_pts file          = ./ethanol_opt_freq.gridpts.0
 Record size in doubles =  12289        No. of grid_pts per rec  =   3070
 Max. records in memory =     97        Max. recs in file   = *********


           Memory utilization after 1st SCF pass: 
           Heap Space remaining (MW):       79.40            79402756
          Stack Space remaining (MW):      134.22           134217108

   convergence    iter        energy       DeltaE   RMS-Dens  Diis-err    time
 ---------------- ----- ----------------- --------- --------- ---------  ------
 d= 0,ls=0.0,diis     1   -154.8762124617 -2.37D+02  1.36D-02  5.01D-01     3.1
 d= 0,ls=0.0,diis     2   -154.8819222379 -5.71D-03  7.11D-03  4.86D-01     4.1
 d= 0,ls=0.0,diis     3   -154.9229661455 -4.10D-02  1.45D-03  4.31D-02     5.1
 d= 0,ls=0.0,diis     4   -154.9266010108 -3.63D-03  3.06D-04  9.12D-04     6.2
 d= 0,ls=0.0,diis     5   -154.9266849066 -8.39D-05  8.81D-05  1.04D-04     7.3
  Resetting Diis
 d= 0,ls=0.0,diis     6   -154.9266971509 -1.22D-05  9.07D-06  7.99D-07     8.3
 d= 0,ls=0.0,diis     7   -154.9266972386 -8.77D-08  2.16D-06  1.59D-08     9.3


         Total DFT energy =     -154.926697238636
      One electron energy =     -371.438065545487
           Coulomb energy =      156.521328830179
    Exchange-Corr. energy =      -21.701481257633
 Nuclear repulsion energy =       81.694649215593

    Dispersion correction =       -0.003128481288

 Numeric. integr. density =       26.000000035834

     Total iterative time =      7.5s



                  Occupations of the irreducible representations
                  ----------------------------------------------

                     irrep           alpha         beta
                     --------     --------     --------
                     a'               10.0         10.0
                     a"                3.0          3.0


                       DFT Final Molecular Orbital Analysis
                       ------------------------------------

 Vector    1  Occ=2.000000D+00  E=-1.913056D+01  Symmetry=a'
              MO Center= -3.4D-01,  1.2D+00, -3.6D-20, r^2= 1.5D-02
   Bfn.  Coefficient  Atom+Function         Bfn.  Coefficient  Atom+Function  
  ----- ------------  ---------------      ----- ------------  ---------------
    56      0.985466  8 O  s                 57     -0.050164  8 O  s          

 Vector    2  Occ=2.000000D+00  E=-1.023155D+01  Symmetry=a'
              MO Center=  5.5D-01,  6.6D-02, -4.0D-18, r^2= 2.8D-02
   Bfn.  Coefficient  Atom+Function         Bfn.  Coefficient  Atom+Function  
  ----- ------------  ---------------      ----- ------------  ---------------
    31      0.987487  5 C  s                 32      0.052098  5 C  s          
    33     -0.037471  5 C  s          

 Vector    3  Occ=2.000000D+00  E=-1.017738D+01  Symmetry=a'
              MO Center= -2.7D-01, -1.2D+00, -3.7D-18, r^2= 2.8D-02
   Bfn.  Coefficient  Atom+Function         Bfn.  Coefficient  Atom+Function  
  ----- ------------  ---------------      ----- ------------  ---------------
     1      0.987257  1 C  s                  2      0.054612  1 C  s          
     3     -0.046323  1 C  s          

 Vector    4  Occ=2.000000D+00  E=-9.925302D-01  Symmetry=a'
              MO Center= -1.0D-01,  1.1D+00, -4.1D-17, r^2= 6.4D-01
   Bfn.  Coefficient  Atom+Function         Bfn.  Coefficient  Atom+Function  
  ----- ------------  ---------------      ----- ------------  ---------------
    57      0.522711  8 O  s                 58      0.267051  8 O  s          
    56      0.261656  8 O  s                 71      0.186343  9 H  s          
    32      0.173474  5 C  s                 59      0.113548  8 O  px         
    31     -0.094561  5 C  s                 35      0.088252  5 C  py         
    34     -0.064199  5 C  px                 2      0.036353  1 C  s          

 Vector    5  Occ=2.000000D+00  E=-7.402717D-01  Symmetry=a'
              MO Center=  5.1D-02, -5.9D-01, -3.9D-18, r^2= 1.8D+00
   Bfn.  Coefficient  Atom+Function         Bfn.  Coefficient  Atom+Function  
  ----- ------------  ---------------      ----- ------------  ---------------
     2      0.361095  1 C  s                 32      0.290613  5 C  s          
     1     -0.192505  1 C  s                 31     -0.149101  5 C  s          
    57     -0.144135  8 O  s                 21      0.128714  3 H  s          
    16      0.122146  2 H  s                 26      0.122146  4 H  s          
    60     -0.114875  8 O  py                71     -0.114949  9 H  s          

 Vector    6  Occ=2.000000D+00  E=-6.089668D-01  Symmetry=a'
              MO Center=  1.5D-01, -3.4D-01,  2.1D-15, r^2= 2.5D+00
   Bfn.  Coefficient  Atom+Function         Bfn.  Coefficient  Atom+Function  
  ----- ------------  ---------------      ----- ------------  ---------------
    32      0.335718  5 C  s                  2     -0.287256  1 C  s          
    60     -0.177126  8 O  py                46      0.172161  6 H  s          
    51      0.172161  7 H  s                 31     -0.161397  5 C  s          
    16     -0.150192  2 H  s                 26     -0.150192  4 H  s          
    21     -0.146498  3 H  s                  1      0.144628  1 C  s          

 Vector    7  Occ=2.000000D+00  E=-5.094987D-01  Symmetry=a'
              MO Center=  1.5D-01,  6.1D-01, -6.3D-16, r^2= 1.8D+00
   Bfn.  Coefficient  Atom+Function         Bfn.  Coefficient  Atom+Function  
  ----- ------------  ---------------      ----- ------------  ---------------
    60      0.401995  8 O  py                34      0.288922  5 C  px         
    71      0.278348  9 H  s                 63      0.170568  8 O  py         
    46      0.135878  6 H  s                 51      0.135878  7 H  s          
    37      0.120837  5 C  px                 4      0.103394  1 C  px         
    35     -0.103403  5 C  py                58     -0.103662  8 O  s          

 Vector    8  Occ=2.000000D+00  E=-4.670459D-01  Symmetry=a"
              MO Center=  3.2D-01, -1.8D-01, -7.5D-18, r^2= 1.9D+00
   Bfn.  Coefficient  Atom+Function         Bfn.  Coefficient  Atom+Function  
  ----- ------------  ---------------      ----- ------------  ---------------
    36      0.371051  5 C  pz                 6      0.238332  1 C  pz         
    46     -0.222327  6 H  s                 51      0.222327  7 H  s          
    61      0.179438  8 O  pz                16      0.143959  2 H  s          
    26     -0.143959  4 H  s                 39      0.131861  5 C  pz         
    64      0.114437  8 O  pz                 9      0.094099  1 C  pz         

 Vector    9  Occ=2.000000D+00  E=-3.955702D-01  Symmetry=a'
              MO Center= -2.2D-01, -3.8D-01, -1.4D-14, r^2= 2.3D+00
   Bfn.  Coefficient  Atom+Function         Bfn.  Coefficient  Atom+Function  
  ----- ------------  ---------------      ----- ------------  ---------------
     4      0.357939  1 C  px                59     -0.288593  8 O  px         
    35     -0.275821  5 C  py                16     -0.187063  2 H  s          
    26     -0.187063  4 H  s                 58      0.184368  8 O  s          
    62     -0.172997  8 O  px                38     -0.165435  5 C  py         
    21      0.147352  3 H  s                 57      0.120555  8 O  s          

 Vector   10  Occ=2.000000D+00  E=-3.862350D-01  Symmetry=a'
              MO Center= -9.5D-03, -8.9D-01,  3.1D-15, r^2= 2.2D+00
   Bfn.  Coefficient  Atom+Function         Bfn.  Coefficient  Atom+Function  
  ----- ------------  ---------------      ----- ------------  ---------------
     5      0.366068  1 C  py                21     -0.347440  3 H  s          
    35     -0.254128  5 C  py                60      0.213938  8 O  py         
    22     -0.164635  3 H  s                  4     -0.163654  1 C  px         
    59     -0.158758  8 O  px                 8      0.137092  1 C  py         
    63      0.110239  8 O  py                62     -0.109510  8 O  px         

 Vector   11  Occ=2.000000D+00  E=-3.704313D-01  Symmetry=a"
              MO Center= -2.7D-01, -7.6D-01,  1.1D-14, r^2= 2.2D+00
   Bfn.  Coefficient  Atom+Function         Bfn.  Coefficient  Atom+Function  
  ----- ------------  ---------------      ----- ------------  ---------------
     6      0.382236  1 C  pz                16      0.283166  2 H  s          
    26     -0.283166  4 H  s                 36     -0.209646  5 C  pz         
    61     -0.190861  8 O  pz                 9      0.156189  1 C  pz         
    46      0.156323  6 H  s                 51     -0.156323  7 H  s          
    64     -0.136121  8 O  pz                17      0.122786  2 H  s          

 Vector   12  Occ=2.000000D+00  E=-3.200521D-01  Symmetry=a'
              MO Center= -1.1D-01,  4.8D-01, -1.6D-15, r^2= 2.0D+00
   Bfn.  Coefficient  Atom+Function         Bfn.  Coefficient  Atom+Function  
  ----- ------------  ---------------      ----- ------------  ---------------
    59      0.439292  8 O  px                34     -0.294096  5 C  px         
    62      0.288988  8 O  px                58     -0.265947  8 O  s          
     5      0.197205  1 C  py                71      0.193553  9 H  s          
     3      0.172671  1 C  s                  4      0.166142  1 C  px         
    46     -0.151653  6 H  s                 51     -0.151653  7 H  s          

 Vector   13  Occ=2.000000D+00  E=-2.637183D-01  Symmetry=a"
              MO Center= -5.5D-02,  9.2D-01,  5.0D-17, r^2= 1.4D+00
   Bfn.  Coefficient  Atom+Function         Bfn.  Coefficient  Atom+Function  
  ----- ------------  ---------------      ----- ------------  ---------------
    61      0.586038  8 O  pz                64      0.445130  8 O  pz         
    46      0.208559  6 H  s                 51     -0.208559  7 H  s          
    36     -0.187984  5 C  pz                47      0.150836  6 H  s          
    52     -0.150836  7 H  s                 17      0.096031  2 H  s          
    27     -0.096031  4 H  s                  9     -0.068366  1 C  pz         

 Vector   14  Occ=0.000000D+00  E= 5.347358D-02  Symmetry=a'
              MO Center=  6.0D-01,  1.0D+00,  3.3D-16, r^2= 5.1D+00
   Bfn.  Coefficient  Atom+Function         Bfn.  Coefficient  Atom+Function  
  ----- ------------  ---------------      ----- ------------  ---------------
    33      1.371002  5 C  s                 72     -0.984892  9 H  s          
    47     -0.806535  6 H  s                 52     -0.806535  7 H  s          
     3      0.642376  1 C  s                 58      0.587303  8 O  s          
    22     -0.551641  3 H  s                 37      0.411280  5 C  px         
    17     -0.291632  2 H  s                 27     -0.291632  4 H  s          

 Vector   15  Occ=0.000000D+00  E= 8.663271D-02  Symmetry=a'
              MO Center=  5.3D-03, -4.2D-01, -4.5D-17, r^2= 6.7D+00
   Bfn.  Coefficient  Atom+Function         Bfn.  Coefficient  Atom+Function  
  ----- ------------  ---------------      ----- ------------  ---------------
     3      2.326248  1 C  s                 17     -0.980806  2 H  s          
    27     -0.980806  4 H  s                 22     -0.970203  3 H  s          
    72      0.729715  9 H  s                 58     -0.550516  8 O  s          
    47     -0.444708  6 H  s                 52     -0.444708  7 H  s          
    33      0.365970  5 C  s                 38      0.349714  5 C  py         

 Vector   16  Occ=0.000000D+00  E= 1.247205D-01  Symmetry=a"
              MO Center=  5.5D-01, -3.5D-01,  2.1D-13, r^2= 5.4D+00
   Bfn.  Coefficient  Atom+Function         Bfn.  Coefficient  Atom+Function  
  ----- ------------  ---------------      ----- ------------  ---------------
    47      1.395011  6 H  s                 52     -1.395011  7 H  s          
    39      0.961153  5 C  pz                17     -0.925553  2 H  s          
    27      0.925553  4 H  s                  9      0.555340  1 C  pz         
    36      0.322186  5 C  pz                 6      0.215847  1 C  pz         
    64     -0.100301  8 O  pz                46      0.056210  6 H  s          

 Vector   17  Occ=0.000000D+00  E= 1.256191D-01  Symmetry=a'
              MO Center=  4.9D-01, -2.3D-01, -1.9D-13, r^2= 6.5D+00
   Bfn.  Coefficient  Atom+Function         Bfn.  Coefficient  Atom+Function  
  ----- ------------  ---------------      ----- ------------  ---------------
    33      2.643658  5 C  s                  3     -2.353763  1 C  s          
    47     -1.337617  6 H  s                 52     -1.337617  7 H  s          
    17      0.918917  2 H  s                 27      0.918917  4 H  s          
    72      0.543265  9 H  s                 22      0.523239  3 H  s          
    58     -0.514323  8 O  s                  8     -0.293844  1 C  py         

 Vector   18  Occ=0.000000D+00  E= 1.435454D-01  Symmetry=a'
              MO Center=  1.8D-01, -1.9D+00,  1.0D-15, r^2= 3.8D+00
   Bfn.  Coefficient  Atom+Function         Bfn.  Coefficient  Atom+Function  
  ----- ------------  ---------------      ----- ------------  ---------------
    22      2.084877  3 H  s                  7     -1.140091  1 C  px         
    17     -0.899665  2 H  s                 27     -0.899665  4 H  s          
     8      0.718339  1 C  py                33      0.411380  5 C  s          
    37      0.343196  5 C  px                47     -0.314533  6 H  s          
    52     -0.314533  7 H  s                  4     -0.299110  1 C  px         

 Vector   19  Occ=0.000000D+00  E= 1.659714D-01  Symmetry=a"
              MO Center= -2.5D-01, -8.3D-01, -1.8D-14, r^2= 5.3D+00
   Bfn.  Coefficient  Atom+Function         Bfn.  Coefficient  Atom+Function  
  ----- ------------  ---------------      ----- ------------  ---------------
    17      1.494064  2 H  s                 27     -1.494064  4 H  s          
     9     -1.257612  1 C  pz                47      1.097245  6 H  s          
    52     -1.097245  7 H  s                 39      0.954877  5 C  pz         
     6     -0.298646  1 C  pz                36      0.238077  5 C  pz         
    64     -0.139950  8 O  pz                61     -0.081800  8 O  pz         

 Vector   20  Occ=0.000000D+00  E= 2.021423D-01  Symmetry=a'
              MO Center=  4.2D-01,  4.0D-01, -1.3D-15, r^2= 2.8D+00
   Bfn.  Coefficient  Atom+Function         Bfn.  Coefficient  Atom+Function  
  ----- ------------  ---------------      ----- ------------  ---------------
    38      1.306953  5 C  py                37     -0.809568  5 C  px         
    58     -0.789768  8 O  s                 72     -0.766423  9 H  s          
    63      0.699074  8 O  py                33      0.609085  5 C  s          
     7      0.509687  1 C  px                60      0.352888  8 O  py         
    35      0.347392  5 C  py                62     -0.345242  8 O  px         

 Vector   21  Occ=0.000000D+00  E= 2.240113D-01  Symmetry=a'
              MO Center=  3.2D-02, -7.0D-01, -1.2D-15, r^2= 2.9D+00
   Bfn.  Coefficient  Atom+Function         Bfn.  Coefficient  Atom+Function  
  ----- ------------  ---------------      ----- ------------  ---------------
    33     -2.032592  5 C  s                  3      1.950981  1 C  s          
     8      1.759496  1 C  py                37      1.480731  5 C  px         
    38      1.195022  5 C  py                 7      0.880425  1 C  px         
    58      0.393735  8 O  s                 47     -0.334302  6 H  s          
    52     -0.334302  7 H  s                 34      0.325750  5 C  px         

 Vector   22  Occ=0.000000D+00  E= 4.332664D-01  Symmetry=a"
              MO Center=  3.0D-02, -9.6D-01,  9.8D-15, r^2= 2.8D+00
   Bfn.  Coefficient  Atom+Function         Bfn.  Coefficient  Atom+Function  
  ----- ------------  ---------------      ----- ------------  ---------------
     9      0.975844  1 C  pz                16     -0.655885  2 H  s          
    26      0.655885  4 H  s                 46      0.398413  6 H  s          
    51     -0.398413  7 H  s                  6     -0.206975  1 C  pz         
    12      0.166313  1 C  dxz               42     -0.131985  5 C  dxz        
    47     -0.130586  6 H  s                 52      0.130586  7 H  s          

 Vector   23  Occ=0.000000D+00  E= 4.413162D-01  Symmetry=a'
              MO Center=  1.9D-01, -5.3D-01, -7.0D-15, r^2= 3.7D+00
   Bfn.  Coefficient  Atom+Function         Bfn.  Coefficient  Atom+Function  
  ----- ------------  ---------------      ----- ------------  ---------------
    37      1.152603  5 C  px                 7     -0.892995  1 C  px         
    38      0.517617  5 C  py                 3      0.425475  1 C  s          
    33     -0.420301  5 C  s                  4      0.374660  1 C  px         
    16     -0.345089  2 H  s                 26     -0.345089  4 H  s          
     2      0.314780  1 C  s                 32      0.308942  5 C  s          

 Vector   24  Occ=0.000000D+00  E= 4.697868D-01  Symmetry=a'
              MO Center= -2.7D-01, -5.8D-01, -1.6D-15, r^2= 3.4D+00
   Bfn.  Coefficient  Atom+Function         Bfn.  Coefficient  Atom+Function  
  ----- ------------  ---------------      ----- ------------  ---------------
     8      0.836649  1 C  py                21      0.769164  3 H  s          
     7     -0.699653  1 C  px                33      0.489374  5 C  s          
    32     -0.462662  5 C  s                 71      0.454102  9 H  s          
     3      0.415553  1 C  s                 72     -0.339556  9 H  s          
     5     -0.286883  1 C  py                47     -0.287219  6 H  s          

 Vector   25  Occ=0.000000D+00  E= 4.932450D-01  Symmetry=a'
              MO Center=  3.4D-01,  7.5D-02, -2.8D-15, r^2= 2.7D+00
   Bfn.  Coefficient  Atom+Function         Bfn.  Coefficient  Atom+Function  
  ----- ------------  ---------------      ----- ------------  ---------------
    33      2.736613  5 C  s                 58     -1.263845  8 O  s          
    37     -1.209021  5 C  px                 8     -1.018404  1 C  py         
     3     -0.953101  1 C  s                 38      0.947663  5 C  py         
    32     -0.849407  5 C  s                 35     -0.616981  5 C  py         
    34      0.486693  5 C  px                47     -0.339782  6 H  s          

 Vector   26  Occ=0.000000D+00  E= 5.736593D-01  Symmetry=a"
              MO Center=  1.7D-01, -4.0D-01,  7.9D-15, r^2= 3.4D+00
   Bfn.  Coefficient  Atom+Function         Bfn.  Coefficient  Atom+Function  
  ----- ------------  ---------------      ----- ------------  ---------------
    39      1.923128  5 C  pz                 9     -1.691826  1 C  pz         
    46      0.582536  6 H  s                 51     -0.582536  7 H  s          
    17      0.532696  2 H  s                 27     -0.532696  4 H  s          
     6      0.390826  1 C  pz                47      0.327681  6 H  s          
    52     -0.327681  7 H  s                 36     -0.296169  5 C  pz         

 Vector   27  Occ=0.000000D+00  E= 5.879255D-01  Symmetry=a'
              MO Center=  1.1D-01,  3.6D-01, -1.0D-14, r^2= 4.0D+00
   Bfn.  Coefficient  Atom+Function         Bfn.  Coefficient  Atom+Function  
  ----- ------------  ---------------      ----- ------------  ---------------
     3      3.845461  1 C  s                 38      2.039007  5 C  py         
    33     -1.546097  5 C  s                  7      1.119207  1 C  px         
    37      1.062571  5 C  px                 8      0.972747  1 C  py         
     2     -0.839555  1 C  s                 72     -0.822360  9 H  s          
    71      0.691751  9 H  s                 35     -0.462686  5 C  py         

 Vector   28  Occ=0.000000D+00  E= 6.271387D-01  Symmetry=a'
              MO Center=  3.7D-01,  2.0D-02, -7.4D-16, r^2= 3.9D+00
   Bfn.  Coefficient  Atom+Function         Bfn.  Coefficient  Atom+Function  
  ----- ------------  ---------------      ----- ------------  ---------------
    33      3.504444  5 C  s                  8     -1.224736  1 C  py         
    32     -0.992045  5 C  s                 38     -0.988144  5 C  py         
     3     -0.948834  1 C  s                 47     -0.837812  6 H  s          
    52     -0.837812  7 H  s                  7     -0.778220  1 C  px         
    71      0.603535  9 H  s                 72     -0.475482  9 H  s          

 Vector   29  Occ=0.000000D+00  E= 6.634723D-01  Symmetry=a'
              MO Center=  2.3D-03, -7.7D-01,  5.5D-15, r^2= 4.9D+00
   Bfn.  Coefficient  Atom+Function         Bfn.  Coefficient  Atom+Function  
  ----- ------------  ---------------      ----- ------------  ---------------
     3      3.783832  1 C  s                 22     -1.391127  3 H  s          
     2     -1.382793  1 C  s                 17     -1.036008  2 H  s          
    27     -1.036008  4 H  s                 33      1.038488  5 C  s          
    47     -0.618287  6 H  s                 52     -0.618287  7 H  s          
     8     -0.584492  1 C  py                37      0.564762  5 C  px         

 Vector   30  Occ=0.000000D+00  E= 6.745691D-01  Symmetry=a'
              MO Center=  6.2D-01, -3.6D-01, -9.2D-16, r^2= 4.2D+00
   Bfn.  Coefficient  Atom+Function         Bfn.  Coefficient  Atom+Function  
  ----- ------------  ---------------      ----- ------------  ---------------
    33      4.588640  5 C  s                  3     -3.065282  1 C  s          
    47     -1.479315  6 H  s                 52     -1.479315  7 H  s          
    22      1.277165  3 H  s                 32     -1.167185  5 C  s          
    37      0.800743  5 C  px                 2      0.621358  1 C  s          
     5     -0.527763  1 C  py                34     -0.487023  5 C  px         

 Vector   31  Occ=0.000000D+00  E= 6.781004D-01  Symmetry=a"
              MO Center=  8.0D-01, -6.4D-02,  6.0D-15, r^2= 2.9D+00
   Bfn.  Coefficient  Atom+Function         Bfn.  Coefficient  Atom+Function  
  ----- ------------  ---------------      ----- ------------  ---------------
    39      1.559283  5 C  pz                47      1.522034  6 H  s          
    52     -1.522034  7 H  s                 36     -0.872186  5 C  pz         
    46     -0.481588  6 H  s                 51      0.481588  7 H  s          
    17      0.348816  2 H  s                 27     -0.348816  4 H  s          
    16     -0.289521  2 H  s                 26      0.289521  4 H  s          

 Vector   32  Occ=0.000000D+00  E= 7.056720D-01  Symmetry=a'
              MO Center= -3.6D-01, -1.0D+00, -1.4D-15, r^2= 3.3D+00
   Bfn.  Coefficient  Atom+Function         Bfn.  Coefficient  Atom+Function  
  ----- ------------  ---------------      ----- ------------  ---------------
     7     -1.630780  1 C  px                 3      1.523700  1 C  s          
    17     -1.369027  2 H  s                 27     -1.369027  4 H  s          
    22      0.993559  3 H  s                  4      0.734208  1 C  px         
    37     -0.659369  5 C  px                 2     -0.612974  1 C  s          
    47      0.508852  6 H  s                 52      0.508852  7 H  s          

 Vector   33  Occ=0.000000D+00  E= 7.076085D-01  Symmetry=a"
              MO Center= -4.9D-01, -1.1D+00, -8.3D-15, r^2= 2.9D+00
   Bfn.  Coefficient  Atom+Function         Bfn.  Coefficient  Atom+Function  
  ----- ------------  ---------------      ----- ------------  ---------------
    17     -1.456430  2 H  s                 27      1.456430  4 H  s          
     9      1.357061  1 C  pz                39      0.914880  5 C  pz         
     6     -0.862105  1 C  pz                47      0.556618  6 H  s          
    52     -0.556618  7 H  s                 16      0.443297  2 H  s          
    26     -0.443297  4 H  s                 36     -0.339941  5 C  pz         

 Vector   34  Occ=0.000000D+00  E= 7.199487D-01  Symmetry=a'
              MO Center=  3.3D-01, -6.6D-01,  1.7D-15, r^2= 3.2D+00
   Bfn.  Coefficient  Atom+Function         Bfn.  Coefficient  Atom+Function  
  ----- ------------  ---------------      ----- ------------  ---------------
    33      2.097197  5 C  s                  3      1.520010  1 C  s          
    22     -1.208485  3 H  s                  8     -0.887446  1 C  py         
    46     -0.620048  6 H  s                 51     -0.620048  7 H  s          
     2     -0.585834  1 C  s                 32     -0.582231  5 C  s          
    16     -0.460108  2 H  s                 26     -0.460108  4 H  s          

 Vector   35  Occ=0.000000D+00  E= 8.823009D-01  Symmetry=a'
              MO Center=  6.8D-02, -4.7D-01,  1.2D-15, r^2= 3.9D+00
   Bfn.  Coefficient  Atom+Function         Bfn.  Coefficient  Atom+Function  
  ----- ------------  ---------------      ----- ------------  ---------------
     3      6.599225  1 C  s                 33     -5.729215  5 C  s          
    38      1.747008  5 C  py                 8      1.530398  1 C  py         
     7      1.156942  1 C  px                37      1.022365  5 C  px         
     2     -0.866083  1 C  s                 21     -0.761308  3 H  s          
    63     -0.697841  8 O  py                32      0.664978  5 C  s          

 Vector   36  Occ=0.000000D+00  E= 9.783522D-01  Symmetry=a'
              MO Center= -6.2D-01,  1.1D+00, -3.4D-15, r^2= 2.0D+00
   Bfn.  Coefficient  Atom+Function         Bfn.  Coefficient  Atom+Function  
  ----- ------------  ---------------      ----- ------------  ---------------
    33     -1.111900  5 C  s                 58      1.045164  8 O  s          
     3      1.026906  1 C  s                 62     -0.890972  8 O  px         
    38      0.733297  5 C  py                57     -0.708171  8 O  s          
    59      0.677825  8 O  px                 7      0.535227  1 C  px         
    72     -0.533719  9 H  s                 63      0.416800  8 O  py         

 Vector   37  Occ=0.000000D+00  E= 9.983897D-01  Symmetry=a"
              MO Center= -1.8D-01,  6.1D-01,  3.3D-15, r^2= 2.5D+00
   Bfn.  Coefficient  Atom+Function         Bfn.  Coefficient  Atom+Function  
  ----- ------------  ---------------      ----- ------------  ---------------
    64      1.019288  8 O  pz                61     -0.818733  8 O  pz         
    39     -0.621889  5 C  pz                 9      0.488805  1 C  pz         
    14     -0.274270  1 C  dyz               17     -0.257033  2 H  s          
    27      0.257033  4 H  s                 44      0.208683  5 C  dyz        
    46     -0.171883  6 H  s                 51      0.171883  7 H  s          

 Vector   38  Occ=0.000000D+00  E= 1.069938D+00  Symmetry=a'
              MO Center= -6.5D-02, -9.7D-02,  2.1D-16, r^2= 3.2D+00
   Bfn.  Coefficient  Atom+Function         Bfn.  Coefficient  Atom+Function  
  ----- ------------  ---------------      ----- ------------  ---------------
     3      3.462093  1 C  s                 33     -3.133223  5 C  s          
    58      1.344170  8 O  s                  8      1.075537  1 C  py         
    38      1.011912  5 C  py                63      0.824572  8 O  py         
    37      0.572232  5 C  px                71     -0.490658  9 H  s          
    72     -0.492050  9 H  s                  2     -0.488032  1 C  s          

 Vector   39  Occ=0.000000D+00  E= 1.207312D+00  Symmetry=a"
              MO Center=  2.9D-01,  2.2D-01,  5.6D-17, r^2= 2.6D+00
   Bfn.  Coefficient  Atom+Function         Bfn.  Coefficient  Atom+Function  
  ----- ------------  ---------------      ----- ------------  ---------------
    39      0.804663  5 C  pz                44      0.599494  5 C  dyz        
    64     -0.585316  8 O  pz                14     -0.422810  1 C  dyz        
    61      0.378958  8 O  pz                49     -0.305726  6 H  py         
    54      0.305726  7 H  py                47      0.279899  6 H  s          
    52     -0.279899  7 H  s                 75     -0.263499  9 H  pz         

 Vector   40  Occ=0.000000D+00  E= 1.263601D+00  Symmetry=a'
              MO Center= -3.8D-01,  2.1D-01, -2.0D-16, r^2= 3.0D+00
   Bfn.  Coefficient  Atom+Function         Bfn.  Coefficient  Atom+Function  
  ----- ------------  ---------------      ----- ------------  ---------------
    33      1.498001  5 C  s                 63      1.481068  8 O  py         
    58     -1.094299  8 O  s                  3      0.918249  1 C  s          
    57      0.548758  8 O  s                 60     -0.513701  8 O  py         
    71     -0.481169  9 H  s                  7     -0.441224  1 C  px         
    38      0.429088  5 C  py                 8      0.414734  1 C  py         

 Vector   41  Occ=0.000000D+00  E= 1.365177D+00  Symmetry=a"
              MO Center=  7.6D-02, -6.5D-01,  1.1D-16, r^2= 2.5D+00
   Bfn.  Coefficient  Atom+Function         Bfn.  Coefficient  Atom+Function  
  ----- ------------  ---------------      ----- ------------  ---------------
    39     -0.725570  5 C  pz                 9      0.668567  1 C  pz         
    14      0.423184  1 C  dyz               19      0.405377  2 H  py         
    29     -0.405377  4 H  py                49     -0.350743  6 H  py         
    54      0.350743  7 H  py                44      0.335629  5 C  dyz        
    47     -0.261263  6 H  s                 52      0.261263  7 H  s          

 Vector   42  Occ=0.000000D+00  E= 1.384857D+00  Symmetry=a'
              MO Center=  2.3D-01,  4.7D-01, -3.0D-16, r^2= 3.1D+00
   Bfn.  Coefficient  Atom+Function         Bfn.  Coefficient  Atom+Function  
  ----- ------------  ---------------      ----- ------------  ---------------
    33      3.673674  5 C  s                 58     -2.950981  8 O  s          
     3     -1.534489  1 C  s                 62     -0.996622  8 O  px         
    57      0.905800  8 O  s                  8     -0.866510  1 C  py         
    37     -0.864388  5 C  px                71      0.630942  9 H  s          
    38      0.487433  5 C  py                32     -0.401221  5 C  s          

 Vector   43  Occ=0.000000D+00  E= 1.481405D+00  Symmetry=a"
              MO Center=  6.3D-02,  1.5D+00, -6.0D-16, r^2= 1.5D+00
   Bfn.  Coefficient  Atom+Function         Bfn.  Coefficient  Atom+Function  
  ----- ------------  ---------------      ----- ------------  ---------------
    75      0.919174  9 H  pz                64     -0.683206  8 O  pz         
    39      0.493928  5 C  pz                69      0.235936  8 O  dyz        
    67      0.228083  8 O  dxz                9     -0.209038  1 C  pz         
    47      0.203193  6 H  s                 52     -0.203193  7 H  s          
    61      0.158908  8 O  pz                48      0.134755  6 H  px         

 Vector   44  Occ=0.000000D+00  E= 1.497000D+00  Symmetry=a'
              MO Center=  2.7D-01,  4.1D-01,  1.6D-15, r^2= 2.7D+00
   Bfn.  Coefficient  Atom+Function         Bfn.  Coefficient  Atom+Function  
  ----- ------------  ---------------      ----- ------------  ---------------
    33      2.819600  5 C  s                 58     -2.382810  8 O  s          
     3     -1.369144  1 C  s                 62     -1.332093  8 O  px         
    57      0.791003  8 O  s                 71      0.682690  9 H  s          
    47     -0.417397  6 H  s                 52     -0.417397  7 H  s          
    35      0.380310  5 C  py                38      0.332296  5 C  py         

 Vector   45  Occ=0.000000D+00  E= 1.550570D+00  Symmetry=a"
              MO Center= -4.4D-01, -1.5D+00, -1.4D-15, r^2= 1.7D+00
   Bfn.  Coefficient  Atom+Function         Bfn.  Coefficient  Atom+Function  
  ----- ------------  ---------------      ----- ------------  ---------------
    25      0.606296  3 H  pz                18     -0.432005  2 H  px         
    28      0.432005  4 H  px                20     -0.287060  2 H  pz         
    30     -0.287060  4 H  pz                19      0.274106  2 H  py         
    29     -0.274106  4 H  py                64     -0.115217  8 O  pz         
    75      0.107863  9 H  pz                39      0.079246  5 C  pz         

 Vector   46  Occ=0.000000D+00  E= 1.697297D+00  Symmetry=a'
              MO Center=  3.7D-01,  1.5D-01,  5.7D-17, r^2= 3.1D+00
   Bfn.  Coefficient  Atom+Function         Bfn.  Coefficient  Atom+Function  
  ----- ------------  ---------------      ----- ------------  ---------------
    58      1.886504  8 O  s                 33     -1.675045  5 C  s          
    37      1.467131  5 C  px                63     -0.966627  8 O  py         
     8      0.912268  1 C  py                 3      0.745448  1 C  s          
    38     -0.625503  5 C  py                62      0.560662  8 O  px         
    73     -0.512828  9 H  px                41      0.458946  5 C  dxy        

 Vector   47  Occ=0.000000D+00  E= 1.731993D+00  Symmetry=a"
              MO Center=  8.2D-01,  6.2D-02, -4.5D-15, r^2= 2.2D+00
   Bfn.  Coefficient  Atom+Function         Bfn.  Coefficient  Atom+Function  
  ----- ------------  ---------------      ----- ------------  ---------------
    39      1.663887  5 C  pz                 9     -0.689902  1 C  pz         
    47      0.557770  6 H  s                 52     -0.557770  7 H  s          
    64     -0.545352  8 O  pz                48     -0.509546  6 H  px         
    53      0.509546  7 H  px                50     -0.483956  6 H  pz         
    55     -0.483956  7 H  pz                46      0.386887  6 H  s          

 Vector   48  Occ=0.000000D+00  E= 1.743821D+00  Symmetry=a'
              MO Center=  8.6D-02, -7.3D-01,  4.2D-15, r^2= 2.2D+00
   Bfn.  Coefficient  Atom+Function         Bfn.  Coefficient  Atom+Function  
  ----- ------------  ---------------      ----- ------------  ---------------
    37     -0.810984  5 C  px                 7      0.742827  1 C  px         
    58     -0.689557  8 O  s                 11      0.525926  1 C  dxy        
    41      0.418724  5 C  dxy               33      0.408282  5 C  s          
    45     -0.320557  5 C  dzz               18     -0.313519  2 H  px         
    28     -0.313519  4 H  px                35      0.305912  5 C  py         

 Vector   49  Occ=0.000000D+00  E= 1.793182D+00  Symmetry=a"
              MO Center= -3.2D-01, -1.4D+00,  3.7D-16, r^2= 2.0D+00
   Bfn.  Coefficient  Atom+Function         Bfn.  Coefficient  Atom+Function  
  ----- ------------  ---------------      ----- ------------  ---------------
     9      1.338480  1 C  pz                25     -0.572407  3 H  pz         
    20     -0.492700  2 H  pz                30     -0.492700  4 H  pz         
    39     -0.425135  5 C  pz                16     -0.408819  2 H  s          
    26      0.408819  4 H  s                 12     -0.367375  1 C  dxz        
    17     -0.335724  2 H  s                 27      0.335724  4 H  s          

 Vector   50  Occ=0.000000D+00  E= 1.824620D+00  Symmetry=a'
              MO Center= -2.6D-01, -9.9D-01,  9.7D-16, r^2= 2.6D+00
   Bfn.  Coefficient  Atom+Function         Bfn.  Coefficient  Atom+Function  
  ----- ------------  ---------------      ----- ------------  ---------------
    33     -1.251810  5 C  s                  7      1.152668  1 C  px         
    63     -0.876736  8 O  py                58      0.796325  8 O  s          
    23     -0.560364  3 H  px                 3      0.546387  1 C  s          
     8     -0.525975  1 C  py                38      0.469289  5 C  py         
    57     -0.444597  8 O  s                 21     -0.433925  3 H  s          

 Vector   51  Occ=0.000000D+00  E= 1.869325D+00  Symmetry=a'
              MO Center=  3.7D-01, -1.7D-01, -2.0D-16, r^2= 2.5D+00
   Bfn.  Coefficient  Atom+Function         Bfn.  Coefficient  Atom+Function  
  ----- ------------  ---------------      ----- ------------  ---------------
    33      1.052352  5 C  s                  3     -0.936359  1 C  s          
    38     -0.928184  5 C  py                41      0.636021  5 C  dxy        
     8     -0.527985  1 C  py                24      0.374223  3 H  py         
    63      0.368681  8 O  py                43     -0.352142  5 C  dyy        
    73      0.317865  9 H  px                49      0.311578  6 H  py         

 Vector   52  Occ=0.000000D+00  E= 1.873678D+00  Symmetry=a"
              MO Center=  2.2D-01, -5.0D-01,  7.5D-16, r^2= 2.2D+00
   Bfn.  Coefficient  Atom+Function         Bfn.  Coefficient  Atom+Function  
  ----- ------------  ---------------      ----- ------------  ---------------
    42      0.644978  5 C  dxz               12     -0.561859  1 C  dxz        
    14     -0.542812  1 C  dyz               44      0.519539  5 C  dyz        
    49      0.267429  6 H  py                54     -0.267429  7 H  py         
    39      0.265564  5 C  pz                18      0.256406  2 H  px         
    28     -0.256406  4 H  px                48      0.247041  6 H  px         

 Vector   53  Occ=0.000000D+00  E= 1.897651D+00  Symmetry=a'
              MO Center=  1.6D-01, -4.7D-01, -1.2D-15, r^2= 3.0D+00
   Bfn.  Coefficient  Atom+Function         Bfn.  Coefficient  Atom+Function  
  ----- ------------  ---------------      ----- ------------  ---------------
     3      1.446387  1 C  s                 38      1.423441  5 C  py         
     8      1.040033  1 C  py                33     -0.988381  5 C  s          
     7      0.710470  1 C  px                37      0.506517  5 C  px         
    49     -0.472764  6 H  py                54     -0.472764  7 H  py         
    19     -0.461800  2 H  py                29     -0.461800  4 H  py         

 Vector   54  Occ=0.000000D+00  E= 1.943295D+00  Symmetry=a"
              MO Center=  5.1D-01, -7.9D-02,  2.5D-16, r^2= 2.0D+00
   Bfn.  Coefficient  Atom+Function         Bfn.  Coefficient  Atom+Function  
  ----- ------------  ---------------      ----- ------------  ---------------
    42      0.714770  5 C  dxz               44     -0.666199  5 C  dyz        
    12      0.478918  1 C  dxz               36     -0.413042  5 C  pz         
    39      0.344333  5 C  pz                48      0.306173  6 H  px         
    53     -0.306173  7 H  px                50     -0.301987  6 H  pz         
    55     -0.301987  7 H  pz                49     -0.293554  6 H  py         

 Vector   55  Occ=0.000000D+00  E= 2.073176D+00  Symmetry=a'
              MO Center=  1.2D-01, -8.7D-01,  4.9D-16, r^2= 2.3D+00
   Bfn.  Coefficient  Atom+Function         Bfn.  Coefficient  Atom+Function  
  ----- ------------  ---------------      ----- ------------  ---------------
    33      0.840087  5 C  s                  7     -0.606557  1 C  px         
    24      0.581359  3 H  py                22      0.459158  3 H  s          
    43      0.414619  5 C  dyy                4     -0.403644  1 C  px         
    11     -0.372459  1 C  dxy               20      0.372839  2 H  pz         
    30     -0.372839  4 H  pz                50     -0.356719  6 H  pz         

 Vector   56  Occ=0.000000D+00  E= 2.205220D+00  Symmetry=a"
              MO Center=  9.6D-03, -6.6D-01, -7.4D-16, r^2= 2.3D+00
   Bfn.  Coefficient  Atom+Function         Bfn.  Coefficient  Atom+Function  
  ----- ------------  ---------------      ----- ------------  ---------------
    44      1.129756  5 C  dyz                9      0.693600  1 C  pz         
     6      0.579387  1 C  pz                25     -0.507226  3 H  pz         
    39     -0.488115  5 C  pz                12      0.454350  1 C  dxz        
    18     -0.452736  2 H  px                28      0.452736  4 H  px         
    17     -0.439588  2 H  s                 27      0.439588  4 H  s          

 Vector   57  Occ=0.000000D+00  E= 2.209993D+00  Symmetry=a'
              MO Center=  1.8D-01,  1.6D-01, -8.8D-17, r^2= 3.3D+00
   Bfn.  Coefficient  Atom+Function         Bfn.  Coefficient  Atom+Function  
  ----- ------------  ---------------      ----- ------------  ---------------
    41      0.827580  5 C  dxy                8     -0.696059  1 C  py         
    73     -0.583510  9 H  px                63     -0.440558  8 O  py         
    74     -0.434944  9 H  py                49     -0.430229  6 H  py         
    54     -0.430229  7 H  py                19      0.421781  2 H  py         
    29      0.421781  4 H  py                71      0.385202  9 H  s          

 Vector   58  Occ=0.000000D+00  E= 2.231995D+00  Symmetry=a'
              MO Center=  2.3D-01,  1.2D+00, -1.8D-16, r^2= 2.1D+00
   Bfn.  Coefficient  Atom+Function         Bfn.  Coefficient  Atom+Function  
  ----- ------------  ---------------      ----- ------------  ---------------
    74      0.956925  9 H  py                 3      0.602873  1 C  s          
    38      0.584769  5 C  py                41      0.446504  5 C  dxy        
    60      0.410649  8 O  py                57      0.381824  8 O  s          
    72     -0.367339  9 H  s                 59      0.349634  8 O  px         
    73      0.321783  9 H  px                49     -0.287547  6 H  py         

 Vector   59  Occ=0.000000D+00  E= 2.407796D+00  Symmetry=a'
              MO Center=  3.1D-01, -4.5D-01,  4.5D-17, r^2= 2.5D+00
   Bfn.  Coefficient  Atom+Function         Bfn.  Coefficient  Atom+Function  
  ----- ------------  ---------------      ----- ------------  ---------------
     3      1.036962  1 C  s                 58      0.950797  8 O  s          
    33     -0.897537  5 C  s                 37      0.817172  5 C  px         
    40      0.660426  5 C  dxx               22     -0.470457  3 H  s          
    23      0.470225  3 H  px                50     -0.435385  6 H  pz         
    55      0.435385  7 H  pz                 2      0.426333  1 C  s          

 Vector   60  Occ=0.000000D+00  E= 2.423471D+00  Symmetry=a'
              MO Center= -1.2D-01, -8.1D-01, -2.3D-16, r^2= 2.2D+00
   Bfn.  Coefficient  Atom+Function         Bfn.  Coefficient  Atom+Function  
  ----- ------------  ---------------      ----- ------------  ---------------
     3      0.909887  1 C  s                 41     -0.869215  5 C  dxy        
    33     -0.804001  5 C  s                  2      0.746197  1 C  s          
    11      0.652835  1 C  dxy               20      0.618852  2 H  pz         
    30     -0.618852  4 H  pz                10      0.458595  1 C  dxx        
    32     -0.419303  5 C  s                 15     -0.390774  1 C  dzz        

 Vector   61  Occ=0.000000D+00  E= 2.531528D+00  Symmetry=a"
              MO Center= -2.8D-02, -9.4D-01,  3.9D-17, r^2= 1.9D+00
   Bfn.  Coefficient  Atom+Function         Bfn.  Coefficient  Atom+Function  
  ----- ------------  ---------------      ----- ------------  ---------------
    14      1.655889  1 C  dyz               36     -0.549089  5 C  pz         
    25      0.542142  3 H  pz                44      0.413218  5 C  dyz        
    12     -0.405328  1 C  dxz               19     -0.385818  2 H  py         
    29      0.385818  4 H  py                42     -0.361969  5 C  dxz        
    67      0.344016  8 O  dxz               46     -0.317767  6 H  s          

 Vector   62  Occ=0.000000D+00  E= 2.594903D+00  Symmetry=a'
              MO Center= -2.7D-02, -6.4D-01,  2.1D-16, r^2= 2.2D+00
   Bfn.  Coefficient  Atom+Function         Bfn.  Coefficient  Atom+Function  
  ----- ------------  ---------------      ----- ------------  ---------------
    10      0.801031  1 C  dxx               41      0.676790  5 C  dxy        
    15     -0.545808  1 C  dzz               18      0.503599  2 H  px         
    28      0.503599  4 H  px                40      0.463596  5 C  dxx        
    37      0.438106  5 C  px                58      0.426304  8 O  s          
    45     -0.389138  5 C  dzz               13     -0.379909  1 C  dyy        

 Vector   63  Occ=0.000000D+00  E= 2.738436D+00  Symmetry=a'
              MO Center=  3.0D-01, -3.1D-01,  9.5D-17, r^2= 2.4D+00
   Bfn.  Coefficient  Atom+Function         Bfn.  Coefficient  Atom+Function  
  ----- ------------  ---------------      ----- ------------  ---------------
    33      1.120520  5 C  s                 32      0.955692  5 C  s          
    46     -0.759818  6 H  s                 51     -0.759818  7 H  s          
     2      0.719158  1 C  s                 45      0.698077  5 C  dzz        
    50     -0.642889  6 H  pz                55      0.642889  7 H  pz         
    58     -0.564811  8 O  s                 34      0.555804  5 C  px         

 Vector   64  Occ=0.000000D+00  E= 2.828981D+00  Symmetry=a'
              MO Center=  3.6D-02, -8.0D-01, -4.9D-16, r^2= 2.3D+00
   Bfn.  Coefficient  Atom+Function         Bfn.  Coefficient  Atom+Function  
  ----- ------------  ---------------      ----- ------------  ---------------
    11      1.574608  1 C  dxy               21      0.866516  3 H  s          
     2     -0.861146  1 C  s                 24      0.805157  3 H  py         
     5      0.664723  1 C  py                45      0.579842  5 C  dzz        
     8      0.552637  1 C  py                23     -0.534120  3 H  px         
    41     -0.494530  5 C  dxy               32      0.451596  5 C  s          

 Vector   65  Occ=0.000000D+00  E= 2.888151D+00  Symmetry=a"
              MO Center= -8.2D-02,  1.7D-01,  4.3D-16, r^2= 2.3D+00
   Bfn.  Coefficient  Atom+Function         Bfn.  Coefficient  Atom+Function  
  ----- ------------  ---------------      ----- ------------  ---------------
    12      1.265154  1 C  dxz               42      1.263532  5 C  dxz        
    67      1.096217  8 O  dxz                6     -0.663113  1 C  pz         
    36      0.561797  5 C  pz                16      0.551828  2 H  s          
    26     -0.551828  4 H  s                 20     -0.481659  2 H  pz         
    30     -0.481659  4 H  pz                46      0.478949  6 H  s          

 Vector   66  Occ=0.000000D+00  E= 2.951419D+00  Symmetry=a"
              MO Center=  2.1D-02,  3.6D-01, -4.9D-16, r^2= 2.1D+00
   Bfn.  Coefficient  Atom+Function         Bfn.  Coefficient  Atom+Function  
  ----- ------------  ---------------      ----- ------------  ---------------
    69      1.178000  8 O  dyz               42      0.975760  5 C  dxz        
    39      0.940224  5 C  pz                12     -0.889852  1 C  dxz        
    44      0.780722  5 C  dyz               46      0.629490  6 H  s          
    51     -0.629490  7 H  s                 36      0.581475  5 C  pz         
    67     -0.519050  8 O  dxz                6      0.476087  1 C  pz         

 Vector   67  Occ=0.000000D+00  E= 2.985156D+00  Symmetry=a'
              MO Center= -1.4D-01, -1.2D+00,  3.3D-15, r^2= 1.7D+00
   Bfn.  Coefficient  Atom+Function         Bfn.  Coefficient  Atom+Function  
  ----- ------------  ---------------      ----- ------------  ---------------
    11     -1.067768  1 C  dxy               15     -1.048185  1 C  dzz        
    21     -1.052379  3 H  s                  4      0.983928  1 C  px         
    13      0.949600  1 C  dyy               24     -0.774845  3 H  py         
     7      0.735307  1 C  px                16      0.674133  2 H  s          
    26      0.674133  4 H  s                 23      0.634018  3 H  px         

 Vector   68  Occ=0.000000D+00  E= 3.013652D+00  Symmetry=a"
              MO Center= -2.1D-01,  1.4D-01, -3.9D-15, r^2= 2.4D+00
   Bfn.  Coefficient  Atom+Function         Bfn.  Coefficient  Atom+Function  
  ----- ------------  ---------------      ----- ------------  ---------------
    12      1.445942  1 C  dxz               67     -1.146057  8 O  dxz        
    44      0.705687  5 C  dyz                6     -0.656539  1 C  pz         
    16      0.653049  2 H  s                 26     -0.653049  4 H  s          
     9     -0.617595  1 C  pz                42      0.552435  5 C  dxz        
    69     -0.534810  8 O  dyz               20     -0.496204  2 H  pz         

 Vector   69  Occ=0.000000D+00  E= 3.113720D+00  Symmetry=a"
              MO Center=  1.0D-01,  2.2D-01,  3.5D-16, r^2= 2.0D+00
   Bfn.  Coefficient  Atom+Function         Bfn.  Coefficient  Atom+Function  
  ----- ------------  ---------------      ----- ------------  ---------------
    42      1.684772  5 C  dxz               12     -1.133767  1 C  dxz        
    69     -1.128096  8 O  dyz               36      0.674973  5 C  pz         
    46      0.671955  6 H  s                 51     -0.671955  7 H  s          
    50      0.529088  6 H  pz                55      0.529088  7 H  pz         
     6      0.497803  1 C  pz                16     -0.484727  2 H  s          

 Vector   70  Occ=0.000000D+00  E= 3.144580D+00  Symmetry=a'
              MO Center= -4.0D-02,  7.3D-01,  6.5D-16, r^2= 1.5D+00
   Bfn.  Coefficient  Atom+Function         Bfn.  Coefficient  Atom+Function  
  ----- ------------  ---------------      ----- ------------  ---------------
    58      0.991814  8 O  s                 65      0.842138  8 O  dxx        
    43     -0.706109  5 C  dyy               11      0.621066  1 C  dxy        
    62      0.607870  8 O  px                70     -0.590765  8 O  dzz        
    33     -0.501618  5 C  s                 45      0.486434  5 C  dzz        
    40      0.426826  5 C  dxx               37      0.422405  5 C  px         

 Vector   71  Occ=0.000000D+00  E= 3.333104D+00  Symmetry=a'
              MO Center= -1.3D-01,  8.8D-01,  2.1D-18, r^2= 1.2D+00
   Bfn.  Coefficient  Atom+Function         Bfn.  Coefficient  Atom+Function  
  ----- ------------  ---------------      ----- ------------  ---------------
    58      1.432285  8 O  s                 41      0.989141  5 C  dxy        
    66     -0.916540  8 O  dxy               68      0.828251  8 O  dyy        
    70     -0.686170  8 O  dzz               45      0.520294  5 C  dzz        
    33     -0.489157  5 C  s                 38     -0.469729  5 C  py         
    62      0.443614  8 O  px                63     -0.436361  8 O  py         

 Vector   72  Occ=0.000000D+00  E= 3.766261D+00  Symmetry=a'
              MO Center= -2.5D-01,  1.3D+00, -1.2D-17, r^2= 8.9D-01
   Bfn.  Coefficient  Atom+Function         Bfn.  Coefficient  Atom+Function  
  ----- ------------  ---------------      ----- ------------  ---------------
    66      1.877480  8 O  dxy               71     -1.590955  9 H  s          
    58      1.113385  8 O  s                 63      1.091783  8 O  py         
    74      0.938551  9 H  py                73      0.578082  9 H  px         
    68      0.557983  8 O  dyy               70     -0.558117  8 O  dzz        
    62      0.522568  8 O  px                 3      0.421054  1 C  s          

 Vector   73  Occ=0.000000D+00  E= 5.131691D+00  Symmetry=a'
              MO Center=  1.6D-01, -5.0D-01,  5.3D-17, r^2= 1.1D+00
   Bfn.  Coefficient  Atom+Function         Bfn.  Coefficient  Atom+Function  
  ----- ------------  ---------------      ----- ------------  ---------------
    32      2.943803  5 C  s                  2      2.643892  1 C  s          
    45     -1.543809  5 C  dzz               40     -1.439339  5 C  dxx        
    15     -1.403865  1 C  dzz               10     -1.330182  1 C  dxx        
    43     -1.304819  5 C  dyy               13     -1.213403  1 C  dyy        
    31     -0.703133  5 C  s                  1     -0.644976  1 C  s          

 Vector   74  Occ=0.000000D+00  E= 5.366752D+00  Symmetry=a'
              MO Center=  8.3D-02, -6.3D-01,  8.0D-18, r^2= 1.1D+00
   Bfn.  Coefficient  Atom+Function         Bfn.  Coefficient  Atom+Function  
  ----- ------------  ---------------      ----- ------------  ---------------
     2      3.023964  1 C  s                 32     -2.784259  5 C  s          
    13     -1.538418  1 C  dyy               10     -1.524311  1 C  dxx        
    15     -1.516252  1 C  dzz               43      1.373239  5 C  dyy        
    40      1.349248  5 C  dxx               45      1.355938  5 C  dzz        
     1     -0.710785  1 C  s                 31      0.635881  5 C  s          

 Vector   75  Occ=0.000000D+00  E= 6.217642D+00  Symmetry=a'
              MO Center= -3.5D-01,  1.1D+00,  7.5D-17, r^2= 5.6D-01
   Bfn.  Coefficient  Atom+Function         Bfn.  Coefficient  Atom+Function  
  ----- ------------  ---------------      ----- ------------  ---------------
    57      2.270206  8 O  s                 68     -1.653651  8 O  dyy        
    58      1.604298  8 O  s                 65     -1.532375  8 O  dxx        
    70     -1.462679  8 O  dzz               33     -1.256900  5 C  s          
    56      0.755032  8 O  s                 63     -0.456415  8 O  py         
     3      0.421896  1 C  s                 32     -0.415173  5 C  s          


 center of mass
 --------------
 x =  -0.04509681 y =   0.09862424 z =   0.00000000

 moments of inertia (a.u.)
 ------------------
         198.463700062049          -0.000009277976           0.000000000000
          -0.000009277976          49.641746214215           0.000000000000
           0.000000000000           0.000000000000         226.129464381591

     Multipole analysis of the density
     ---------------------------------

     L   x y z        total         alpha         beta         nuclear
     -   - - -        -----         -----         ----         -------
     0   0 0 0     -0.000000    -13.000000    -13.000000     26.000000

     1   1 0 0      0.615216      0.307608      0.307608      0.000000
     1   0 1 0      0.066871      0.033435      0.033435     -0.000000
     1   0 0 1      0.000000      0.000000      0.000000      0.000000

     2   2 0 0    -15.077705    -21.177647    -21.177647     27.277589
     2   1 1 0      1.462479     -0.989571     -0.989571      3.441621
     2   1 0 1     -0.000000     -0.000000     -0.000000      0.000000
     2   0 2 0    -12.607315    -63.551416    -63.551416    114.495516
     2   0 1 1     -0.000000     -0.000000     -0.000000      0.000000
     2   0 0 2    -14.689413    -12.796045    -12.796045     10.902677


            General Information
            -------------------
          SCF calculation type: DFT
          Wavefunction type:  closed shell.
          No. of atoms     :     9
          No. of electrons :    26
           Alpha electrons :    13
            Beta electrons :    13
          Charge           :     0
          Spin multiplicity:     1
          Use of symmetry is: on ; symmetry adaption is: on 
          Maximum number of iterations:  50
          This is a Direct SCF calculation.
          AO basis - number of functions:    75
                     number of shells:    36
          Convergence on energy requested:  1.00D-06
          Convergence on density requested:  1.00D-05
          Convergence on gradient requested:  5.00D-04

              XC Information
              --------------
                         B3LYP Method XC Potential
                     Hartree-Fock (Exact) Exchange  0.200          
                        Slater Exchange Functional  0.800 local    
                    Becke 1988 Exchange Functional  0.720 non-local
              Lee-Yang-Parr Correlation Functional  0.810          
                  VWN I RPA Correlation Functional  0.190 local    

             Grid Information
             ----------------
          Grid used for XC integration:  fine      
          Radial quadrature: Mura-Knowles        
          Angular quadrature: Lebedev. 
          Tag              B.-S. Rad. Rad. Pts. Rad. Cut. Ang. Pts.
          ---              ---------- --------- --------- ---------
          C                   0.70       70          10.0       590
          H                   0.35       60          11.0       590
          O                   0.60       70          10.0       590
          Grid pruning is: on 
          Number of quadrature shells:   450
          Spatial weights used:  Erf1

          Convergence Information
          -----------------------
          Convergence aids based upon iterative change in 
          total energy or number of iterations. 
          Levelshifting, if invoked, occurs when the 
          HOMO/LUMO gap drops below (HL_TOL):  1.00D-02
          DIIS, if invoked, will attempt to extrapolate 
          using up to (NFOCK): 10 stored Fock matrices.

                    Damping( 0%)  Levelshifting(0.5)       DIIS
                  --------------- ------------------- ---------------
          dE  on:    start            ASAP                start   
          dE off:    2 iters         50 iters            50 iters 


      Screening Tolerance Information
      -------------------------------
          Density screening/tol_rho:  1.00D-10
[...]
           9     0.16165     0.09644    -0.12354     0.26115    -0.00383    -0.00644
          10     0.20809     0.07598    -0.04523    -0.07482     0.04178     0.21455
          11    -0.00260    -0.16162    -0.05361    -0.10016     0.05602    -0.08194
          12    -0.13477    -0.04883     0.01854     0.29602     0.00265    -0.00132
          13     0.00314     0.00549     0.00341     0.00127     0.12951     0.07001
          14    -0.00550    -0.09336    -0.10543    -0.01065    -0.03559     0.07583
          15     0.20329    -0.03634     0.01700     0.03796    -0.00290    -0.00240
          16     0.20723     0.06688    -0.05427    -0.07762     0.12704     0.06499
          17    -0.00119    -0.14746    -0.03956    -0.09586    -0.07656     0.15063
          18     0.35538     0.00789    -0.02414    -0.02312    -0.00587    -0.00409
          19    -0.20099    -0.05623     0.06076     0.08006     0.13504     0.06965
          20    -0.00892    -0.03038    -0.16249     0.07728    -0.07784     0.14701
          21     0.35538     0.00789    -0.02414    -0.02312    -0.00587    -0.00409
          22     0.00241    -0.00179    -0.00380    -0.00095     0.19757    -0.04939
          23    -0.00610    -0.09946    -0.11147    -0.01251     0.02144    -0.02421
          24    -0.00031    -0.17046     0.15056     0.01298     0.00196     0.00218
          25     0.00187    -0.00729    -0.00925    -0.00263     0.24910    -0.13978
          26    -0.00576    -0.09606    -0.10811    -0.01147    -0.01033     0.03152
          27     0.11929    -0.18945     0.17454    -0.11168     0.00028     0.00252

                    7           8           9          10          11          12
 
 P.Frequency      262.61      301.90      419.61      828.27      914.30     1039.10
 
           1     0.00000     0.00000     0.02790    -0.00000     0.00469    -0.12434
           2    -0.00000    -0.00000    -0.11930     0.00000    -0.14775    -0.05080
           3    -0.01521    -0.02418     0.00000     0.04632     0.00000    -0.00000
           4    -0.30822     0.12276     0.05148    -0.28709    -0.06938    -0.07253
           5     0.26645    -0.17476    -0.30931    -0.32465     0.11935    -0.33393
           6    -0.22464     0.05614     0.00817    -0.18201    -0.03675     0.02475
           7     0.00000     0.00000     0.25547     0.00000    -0.37854     0.11817
           8     0.00000    -0.00000     0.04869     0.00000    -0.43521     0.12060
           9     0.48528    -0.27804    -0.00000    -0.17431     0.00000    -0.00000
          10     0.30822    -0.12276     0.05148     0.28709    -0.06938    -0.07253
          11    -0.26645     0.17476    -0.30931     0.32465     0.11935    -0.33393
          12    -0.22464     0.05614    -0.00817    -0.18201     0.03675    -0.02475
          13    -0.00000    -0.00000    -0.11505     0.00000     0.09919     0.07911
          14    -0.00000    -0.00000    -0.00737     0.00000     0.01062     0.11724
          15    -0.04687     0.05873     0.00000     0.05754    -0.00000    -0.00000
          16    -0.07212     0.03087    -0.10449    -0.34281     0.08161     0.09511
          17     0.02731     0.01060    -0.04372    -0.24974     0.13490     0.05468
          18    -0.09826     0.08536     0.00668    -0.21000    -0.00022     0.00266
          19     0.07212    -0.03087    -0.10449     0.34281     0.08161     0.09511
          20    -0.02731    -0.01060    -0.04372     0.24974     0.13490     0.05468
          21    -0.09826     0.08536    -0.00668    -0.21000     0.00022    -0.00266
          22     0.00000     0.00000     0.04220     0.00000    -0.05244     0.04764
          23     0.00000     0.00000     0.13480     0.00000     0.09225    -0.03632
          24     0.08171     0.02798    -0.00000    -0.01950     0.00000     0.00000
          25     0.00000     0.00000     0.21852    -0.00000    -0.05060    -0.38086
          26    -0.00000     0.00000     0.02635     0.00000     0.09531     0.22326
          27    -0.39716    -0.86037     0.00000     0.03130    -0.00000    -0.00000

                   13          14          15          16          17          18
 
 P.Frequency     1129.98     1175.76     1267.21     1290.90     1381.71     1450.48
 
           1    -0.02429    -0.00000    -0.07046    -0.00000     0.07238     0.00000
           2     0.05397     0.00000     0.02148    -0.00000     0.09964     0.00000
           3    -0.00000     0.09282    -0.00000     0.07907     0.00000    -0.04448
           4     0.05893    -0.21168     0.01819    -0.16581    -0.11506     0.13691
           5    -0.10384    -0.19356    -0.19519    -0.13989    -0.40085    -0.46568
           6     0.04644    -0.07807     0.05146    -0.04864    -0.15014     0.04423
           7     0.17143     0.00000     0.05752    -0.00000    -0.44732    -0.00000
           8     0.19386     0.00000     0.11127    -0.00000    -0.30165     0.00000
           9     0.00000    -0.18967    -0.00000    -0.11536     0.00000     0.69330
          10     0.05893     0.21168     0.01819     0.16581    -0.11506    -0.13691
          11    -0.10384     0.19356    -0.19519     0.13989    -0.40085     0.46568
          12    -0.04644    -0.07807    -0.05146    -0.04864     0.15014     0.04423
          13     0.11371     0.00000     0.08235    -0.00000     0.00191    -0.00000
          14    -0.13864    -0.00000    -0.00506     0.00000     0.04097    -0.00000
          15     0.00000    -0.14418     0.00000    -0.01685    -0.00000    -0.02488
          16     0.08709     0.39428     0.09115    -0.05434    -0.03015     0.03967
          17    -0.27669    -0.16026     0.27963     0.62494    -0.21355     0.03333
          18    -0.01086     0.13626     0.01043    -0.02388    -0.02825     0.00270
          19     0.08709    -0.39428     0.09115     0.05434    -0.03015    -0.03967
          20    -0.27669     0.16026     0.27963    -0.62494    -0.21355    -0.03333
          21     0.01086     0.13626    -0.01043    -0.02388     0.02825     0.00270
          22    -0.08469    -0.00000    -0.06375     0.00000    -0.01409     0.00000
          23     0.08924     0.00000    -0.00494     0.00000    -0.00533     0.00000
          24    -0.00000     0.04347    -0.00000    -0.02975    -0.00000     0.00182
          25    -0.18405     0.00000     0.59403    -0.00000     0.07680    -0.00000
          26     0.15906    -0.00000    -0.39720     0.00000    -0.05920     0.00000
          27     0.00000    -0.00509    -0.00000    -0.00830    -0.00000     0.00978

                   19          20          21          22          23          24
 
 P.Frequency     1456.63     1476.59     1509.58     2946.74     2974.20     3032.28
 
           1     0.00327     0.04752    -0.00821     0.00355     0.00000     0.02646
           2     0.06824     0.00717    -0.00101    -0.00245     0.00000     0.04199
           3     0.00000     0.00000    -0.00000     0.00000    -0.00757     0.00000
           4     0.17063    -0.46456     0.13168     0.00121    -0.03457    -0.32653
           5    -0.17385    -0.00283     0.00633    -0.00039     0.00043    -0.01531
           6     0.10292    -0.36150     0.09989     0.00152     0.04793     0.46033
           7    -0.23244     0.20965    -0.08526    -0.03370     0.00000     0.34762
           8    -0.11260     0.14441    -0.05842     0.03241    -0.00000    -0.45143
           9    -0.00000    -0.00000     0.00000     0.00000    -0.00265     0.00000
          10     0.17063    -0.46456     0.13168     0.00121     0.03457    -0.32653
          11    -0.17385    -0.00283     0.00633    -0.00039    -0.00043    -0.01531
          12    -0.10292     0.36150    -0.09989    -0.00152     0.04793    -0.46033
          13    -0.04486    -0.01598    -0.07827    -0.06434    -0.00000    -0.00243
          14    -0.13023    -0.06109     0.02749    -0.00714    -0.00000    -0.00216
          15     0.00000     0.00000    -0.00000    -0.00000     0.09069    -0.00000
          16    -0.00606     0.16927     0.50059     0.38892     0.39541     0.01060
          17     0.42595     0.17194    -0.12244     0.01808     0.02836     0.00319
          18     0.05469     0.13588     0.39325    -0.56416    -0.53493    -0.01367
          19    -0.00606     0.16927     0.50059     0.38892    -0.39541     0.01060
          20     0.42595     0.17194    -0.12244     0.01808    -0.02836     0.00319
          21    -0.05469    -0.13588    -0.39325     0.56416    -0.53493     0.01367
          22     0.04180     0.00389    -0.01135    -0.00100    -0.00000    -0.00008
          23     0.00990     0.00735     0.00001     0.00265     0.00000    -0.00002
          24    -0.00000    -0.00000     0.00000    -0.00000    -0.00057     0.00000
          25    -0.26485    -0.05638     0.03071    -0.00687    -0.00000    -0.00059
          26     0.18934     0.04269    -0.02484     0.00436     0.00000     0.00176
          27    -0.00000    -0.00000     0.00000    -0.00000    -0.00406    -0.00000

                   25          26          27
 
 P.Frequency     3117.76     3118.34     3821.44
 
           1    -0.00000    -0.07495     0.00045
           2     0.00000     0.04818     0.00002
           3     0.08893    -0.00000     0.00000
           4     0.39549     0.21893     0.00034
           5     0.02404     0.02129     0.00059
           6    -0.53678    -0.32183    -0.00056
           7     0.00001     0.46219    -0.00158
           8    -0.00001    -0.61519     0.00028
           9     0.01225    -0.00000     0.00000
          10    -0.39549     0.21894     0.00034
          11    -0.02404     0.02129     0.00059
          12    -0.53678     0.32184     0.00056
          13    -0.00000    -0.00394    -0.00214
          14     0.00000     0.00006     0.00022
          15     0.00857    -0.00000     0.00000
          16     0.03348     0.01685    -0.00112
          17     0.00505     0.00183     0.00281
          18    -0.04749    -0.02162    -0.00055
          19    -0.03348     0.01685    -0.00112
          20    -0.00505     0.00183     0.00281
          21    -0.04749     0.02162     0.00055
          22     0.00000     0.00028    -0.02992
          23    -0.00000    -0.00034    -0.05279
          24    -0.00024     0.00000     0.00000
          25     0.00000     0.00104     0.49817
          26    -0.00000    -0.00001     0.82797
          27    -0.00074     0.00000     0.00000



 ----------------------------------------------------------------------------
 Normal Eigenvalue ||    Projected Derivative Dipole Moments (debye/angs)
  Mode   [cm**-1]  ||      [d/dqX]             [d/dqY]           [d/dqZ]
 ------ ---------- || ------------------ ------------------ -----------------
    1       -0.000 ||      -0.000               0.001             0.342
    2        0.000 ||       0.002              -0.010            -0.084
    3        0.000 ||      -0.002               0.010            -0.076
    4        0.000 ||      -0.001               0.003            -0.160
    5        0.000 ||       0.018              -0.093            -0.006
    6        0.000 ||      -0.032               0.164            -0.003
    7      262.611 ||       0.000              -0.000            -0.891
    8      301.896 ||       0.000               0.000             1.462
    9      419.607 ||       0.168              -0.469             0.000
   10      828.272 ||      -0.000               0.000            -0.015
   11      914.297 ||       0.249              -0.378            -0.000
   12     1039.102 ||      -0.551               0.911            -0.000
   13     1129.975 ||       0.555              -0.752             0.000
   14     1175.761 ||       0.000              -0.000            -0.335
   15     1267.207 ||       0.965              -1.098             0.000
   16     1290.897 ||       0.000              -0.000             0.018
   17     1381.708 ||      -0.026              -0.098            -0.000
   18     1450.483 ||      -0.000              -0.000             0.359
   19     1456.627 ||      -0.190              -0.566            -0.000
   20     1476.593 ||      -0.230              -0.023            -0.000
   21     1509.576 ||      -0.092               0.296             0.000
   22     2946.739 ||      -1.348               0.073            -0.000
   23     2974.200 ||       0.000              -0.000            -1.350
   24     3032.280 ||       0.263               0.515            -0.000
   25     3117.761 ||       0.000              -0.000            -0.784
   26     3118.337 ||      -0.664               0.348            -0.000
   27     3821.436 ||       0.241               0.741             0.000
 ----------------------------------------------------------------------------



  
  
 ----------------------------------------------------------------------------
 Normal Eigenvalue ||           Projected Infra Red Intensities
  Mode   [cm**-1]  || [atomic units] [(debye/angs)**2] [(KM/mol)] [arbitrary]
 ------ ---------- || -------------- ----------------- ---------- -----------
    1       -0.000 ||    0.005074           0.117         4.946       2.220
    2        0.000 ||    0.000307           0.007         0.300       0.134
    3        0.000 ||    0.000254           0.006         0.248       0.111
    4        0.000 ||    0.001111           0.026         1.083       0.486
    5        0.000 ||    0.000394           0.009         0.384       0.172
    6        0.000 ||    0.001207           0.028         1.176       0.528
    7      262.611 ||    0.034396           0.794        33.531      15.046
    8      301.896 ||    0.092594           2.136        90.265      40.505
    9      419.607 ||    0.010758           0.248        10.487       4.706
   10      828.272 ||    0.000009           0.000         0.009       0.004
   11      914.297 ||    0.008882           0.205         8.659       3.886
   12     1039.102 ||    0.049111           1.133        47.875      21.483
   13     1129.975 ||    0.037906           0.875        36.953      16.582
   14     1175.761 ||    0.004874           0.112         4.751       2.132
   15     1267.207 ||    0.092613           2.137        90.284      40.514
   16     1290.897 ||    0.000015           0.000         0.014       0.006
   17     1381.708 ||    0.000442           0.010         0.431       0.194
   18     1450.483 ||    0.005592           0.129         5.451       2.446
   19     1456.627 ||    0.015464           0.357        15.075       6.765
   20     1476.593 ||    0.002316           0.053         2.258       1.013
   21     1509.576 ||    0.004174           0.096         4.069       1.826
   22     2946.739 ||    0.078943           1.821        76.958      34.534
   23     2974.200 ||    0.078957           1.822        76.971      34.540
   24     3032.280 ||    0.014484           0.334        14.120       6.336
   25     3117.761 ||    0.026615           0.614        25.945      11.643
   26     3118.337 ||    0.024385           0.563        23.772      10.667
   27     3821.436 ||    0.026337           0.608        25.675      11.521
 ----------------------------------------------------------------------------



 vib:animation  F

 Task  times  cpu:      355.5s     wall:      358.0s
 Summary of allocated global arrays
-----------------------------------
  No active global arrays


MA_summarize_allocated_blocks: starting scan ...
heap block 'gridpts', handle 36, address 0x6127f321ba00:
	type of elements:		double precision
	number of elements:		53619994
	address of client space:	0x6127f321ba80
	index for client space:		25451151
	total number of bytes:		428960088
MA_summarize_allocated_blocks: scan completed: 1 heap block, 0 stack blocks
MA usage statistics:

	allocation statistics:
					      heap	     stack
					      ----	     -----
	current number of blocks	         1	         0
	maximum number of blocks	        26	        62
	current total bytes		 428960088	         0
	maximum total bytes		 440979288	  83353192
	maximum total K-bytes		    440980	     83354
	maximum total M-bytes		       441	        84


                                NWChem Input Module
                                -------------------




                                     CITATION
                                     --------
                Please cite the following reference when publishing
                           results obtained with NWChem:

          E. Apra, E. J. Bylaska, W. A. de Jong, N. Govind, K. Kowalski,
       T. P. Straatsma, M. Valiev, H. J. J. van Dam, Y. Alexeev, J. Anchell,
       V. Anisimov, F. W. Aquino, R. Atta-Fynn, J. Autschbach, N. P. Bauman,
     J. C. Becca, D. E. Bernholdt, K. Bhaskaran-Nair, S. Bogatko, P. Borowski,
         J. Boschen, J. Brabec, A. Bruner, E. Cauet, Y. Chen, G. N. Chuev,
      C. J. Cramer, J. Daily, M. J. O. Deegan, T. H. Dunning Jr., M. Dupuis,
   K. G. Dyall, G. I. Fann, S. A. Fischer, A. Fonari, H. Fruchtl, L. Gagliardi,
      J. Garza, N. Gawande, S. Ghosh, K. Glaesemann, A. W. Gotz, J. Hammond,
       V. Helms, E. D. Hermes, K. Hirao, S. Hirata, M. Jacquelin, L. Jensen,
   B. G. Johnson, H. Jonsson, R. A. Kendall, M. Klemm, R. Kobayashi, V. Konkov,
      S. Krishnamoorthy, M. Krishnan, Z. Lin, R. D. Lins, R. J. Littlefield,
      A. J. Logsdail, K. Lopata, W. Ma, A. V. Marenich, J. Martin del Campo,
   D. Mejia-Rodriguez, J. E. Moore, J. M. Mullin, T. Nakajima, D. R. Nascimento,
    J. A. Nichols, P. J. Nichols, J. Nieplocha, A. Otero-de-la-Roza, B. Palmer,
    A. Panyala, T. Pirojsirikul, B. Peng, R. Peverati, J. Pittner, L. Pollack,
   R. M. Richard, P. Sadayappan, G. C. Schatz, W. A. Shelton, D. W. Silverstein,
   D. M. A. Smith, T. A. Soares, D. Song, M. Swart, H. L. Taylor, G. S. Thomas,
            V. Tipparaju, D. G. Truhlar, K. Tsemekhman, T. Van Voorhis,
      A. Vazquez-Mayagoitia, P. Verma, O. Villa, A. Vishnu, K. D. Vogiatzis,
        D. Wang, J. H. Weare, M. J. Williamson, T. L. Windus, K. Wolinski,
        A. T. Wong, Q. Wu, C. Yang, Q. Yu, M. Zacharias, Z. Zhang, Y. Zhao,
                                and R. J. Harrison
                        "NWChem: Past, present, and future
                         J. Chem. Phys. 152, 184102 (2020)
                               doi:10.1063/5.0004997

                                      AUTHORS
                                      -------
  E. Apra, E. J. Bylaska, N. Govind, K. Kowalski, M. Valiev, D. Mejia-Rodriguez,
       A. Kunitsa, N. P. Bauman, A. Panyala, W. A. de Jong, T. P. Straatsma,
   H. J. J. van Dam, D. Wang, T. L. Windus, J. Hammond, J. Autschbach, A. Woods,
    K. Bhaskaran-Nair, J. Brabec, K. Lopata, S. A. Fischer, S. Krishnamoorthy,
     M. Jacquelin, W. Ma, M. Klemm, O. Villa, Y. Chen, V. Anisimov, F. Aquino,
     S. Hirata, M. T. Hackler, E. Hermes, L. Jensen, J. E. Moore, J. C. Becca,
      V. Konjkov, T. Risthaus, M. Malagoli, A. Marenich, A. Otero-de-la-Roza,
        J. Mullin, P. Nichols, R. Peverati, J. Pittner, Y. Zhao, P.-D. Fan,
        A. Fonari, M. J. Williamson, R. J. Harrison, J. R. Rehr, M. Dupuis,
     D. Silverstein, D. M. A. Smith, J. Nieplocha, V. Tipparaju, M. Krishnan,
     B. E. Van Kuiken, A. Vazquez-Mayagoitia, M. Swart, Q. Wu, T. Van Voorhis,
     A. A. Auer, M. Nooijen, L. D. Crosby, E. Brown, G. Cisneros, G. I. Fann,
   H. Fruchtl, J. Garza, K. Hirao, R. A. Kendall, J. A. Nichols, K. Tsemekhman,
    K. Wolinski, J. Anchell, D. E. Bernholdt, P. Borowski, T. Clark, D. Clerc,
   H. Dachsel, M. J. O. Deegan, K. Dyall, D. Elwood, E. Glendening, M. Gutowski,
   A. C. Hess, J. Jaffe, B. G. Johnson, J. Ju, R. Kobayashi, R. Kutteh, Z. Lin,
   R. Littlefield, X. Long, B. Meng, T. Nakajima, S. Niu, L. Pollack, M. Rosing,
   K. Glaesemann, G. Sandrone, M. Stave, H. Taylor, G. Thomas, J. H. van Lenthe,
                               A. T. Wong, Z. Zhang.

 Total times  cpu:      426.7s     wall:      445.5s
