 Entering Gaussian System, Link 0=g16
 Input=/home/greg/Science/gaussian/input/ethanol.gjf
 Output=/home/greg/Science/gaussian/input/ethanol.log
 Initial command:
 /home/greg/Science/gaussian/g16/l1.exe "/home/greg/Science/gaussian/scratch/Gau-3116.inp" -scrdir="/home/greg/Science/gaussian/scratch/"
 Default CPUs for threads: 0
 Entering Link 1 = /home/greg/Science/gaussian/g16/l1.exe PID=      3118.
  
 Copyright (c) 1988,1990,1992,1993,1995,1998,2003,2009,2016,
            Gaussian, Inc.  All Rights Reserved.
  
 This is part of the Gaussian(R) 16 program.  It is based on
 the Gaussian(R) 09 system (copyright 2009, Gaussian, Inc.),
 the Gaussian(R) 03 system (copyright 2003, Gaussian, Inc.),
 the Gaussian(R) 98 system (copyright 1998, Gaussian, Inc.),
 the Gaussian(R) 94 system (copyright 1995, Gaussian, Inc.),
 the Gaussian 92(TM) system (copyright 1992, Gaussian, Inc.),
 the Gaussian 90(TM) system (copyright 1990, Gaussian, Inc.),
 the Gaussian 88(TM) system (copyright 1988, Gaussian, Inc.),
 the Gaussian 86(TM) system (copyright 1986, Carnegie Mellon
 University), and the Gaussian 82(TM) system (copyright 1983,
 Carnegie Mellon University). Gaussian is a federally registered
 trademark of Gaussian, Inc.
  
 This software contains proprietary and confidential information,
 including trade secrets, belonging to Gaussian, Inc.
  
 This software is provided under written license and may be
 used, copied, transmitted, or stored only in accord with that
 written license.
  
 The following legend is applicable only to US Government
 contracts under FAR:
  
                    RESTRICTED RIGHTS LEGEND
  
 Use, reproduction and disclosure by the US Government is
 subject to restrictions as set forth in subparagraphs (a)
 and (c) of the Commercial Computer Software - Restricted
 Rights clause in FAR 52.227-19.
  
 Gaussian, Inc.
 340 Quinnipiac St., Bldg. 40, Wallingford CT 06492
  
  
 ---------------------------------------------------------------
 Warning -- This program may not be used in any manner that
 competes with the business of Gaussian, Inc. or will provide
 assistance to any competitor of Gaussian, Inc.  The licensee
 of this program is prohibited from giving any competitor of
 Gaussian, Inc. access to this program.  By using this program,
 the user acknowledges that Gaussian, Inc. is engaged in the
 business of creating and licensing software in the field of
 computational chemistry and represents and warrants to the
 licensee that it is not a competitor of Gaussian, Inc. and that
 it will not use this program in any manner prohibited above.
 ---------------------------------------------------------------
  

 Cite this work as:
 Gaussian 16, Revision A.03,
 M. J. Frisch, G. W. Trucks, H. B. Schlegel, G. E. Scuseria, 
 M. A. Robb, J. R. Cheeseman, G. Scalmani, V. Barone, 
 G. A. Petersson, H. Nakatsuji, X. Li, M. Caricato, A. V. Marenich, 
 J. Bloino, B. G. Janesko, R. Gomperts, B. Mennucci, H. P. Hratchian, 
 J. V. Ortiz, A. F. Izmaylov, J. L. Sonnenberg, D. Williams-Young, 
 F. Ding, F. Lipparini, F. Egidi, J. Goings, B. Peng, A. Petrone, 
 T. Henderson, D. Ranasinghe, V. G. Zakrzewski, J. Gao, N. Rega, 
 G. Zheng, W. Liang, M. Hada, M. Ehara, K. Toyota, R. Fukuda, 
 J. Hasegawa, M. Ishida, T. Nakajima, Y. Honda, O. Kitao, H. Nakai, 
 T. Vreven, K. Throssell, J. A. Montgomery, Jr., J. E. Peralta, 
 F. Ogliaro, M. J. Bearpark, J. J. Heyd, E. N. Brothers, K. N. Kudin, 
 V. N. Staroverov, T. A. Keith, R. Kobayashi, J. Normand, 
 K. Raghavachari, A. P. Rendell, J. C. Burant, S. S. Iyengar, 
 J. Tomasi, M. Cossi, J. M. Millam, M. Klene, C. Adamo, R. Cammi, 
 J. W. Ochterski, R. L. Martin, K. Morokuma, O. Farkas, 
 J. B. Foresman, and D. J. Fox, Gaussian, Inc., Wallingford CT, 2016.
 
 ******************************************
 Gaussian 16:  ES64L-G16RevA.03 25-Dec-2016
                13-Oct-2025 
 ******************************************
 %nprocshared=7
 Will use up to    7 processors via shared memory.
 %chk=ethanol.chk
 -------------------------------------------------------------
 # opt freq b3lyp/3-21g scrf=(solvent=water) geom=connectivity
 -------------------------------------------------------------
 1/18=20,19=15,26=3,38=1,57=2/1,3;
 2/9=110,12=2,17=6,18=5,40=1/2;
 3/5=5,11=2,25=1,30=1,70=2201,71=1,72=1,74=-5/1,2,3;
 4//1;
 5/5=2,38=5,53=1/2;
 6/7=2,8=2,9=2,10=2,28=1/1;
 7//1,2,3,16;
 1/18=20,19=15,26=3/3(2);
 2/9=110/2;
 99//99;
 2/9=110/2;
 3/5=5,11=2,25=1,30=1,70=2205,71=1,72=1,74=-5/1,2,3;
 4/5=5,16=3,69=1/1;
 5/5=2,38=5,53=1/2;
 7//1,2,3,16;
 1/18=20,19=15,26=3/3(-5);
 2/9=110/2;
 6/7=2,8=2,9=2,10=2,19=2,28=1/1;
 99/9=1/99;
 -------------------
 Title Card Required
 -------------------
 Symbolic Z-matrix:
 Charge =  0 Multiplicity = 1
 C                     0.16082   1.41082   0. 
 H                     0.51747   0.40201   0. 
 H                     0.51749   1.91522   0.87365 
 C                    -1.37918   1.41084   0. 
 H                    -1.73585   0.90475   0.87267 
 H                    -1.73584   2.41965   0.00196 
 H                    -1.73585   0.90813  -0.87463 
 O                     0.63749   2.08492  -1.16759 
 H                     1.59749   2.08668  -1.16712 
 

 GradGradGradGradGradGradGradGradGradGradGradGradGradGradGradGradGradGrad
 Berny optimization.
 Initialization pass.
                           ----------------------------
                           !    Initial Parameters    !
                           ! (Angstroms and Degrees)  !
 --------------------------                            --------------------------
 ! Name  Definition              Value          Derivative Info.                !
 --------------------------------------------------------------------------------
 ! R1    R(1,2)                  1.07           estimate D2E/DX2                !
 ! R2    R(1,3)                  1.07           estimate D2E/DX2                !
 ! R3    R(1,4)                  1.54           estimate D2E/DX2                !
 ! R4    R(1,8)                  1.43           estimate D2E/DX2                !
 ! R5    R(4,5)                  1.07           estimate D2E/DX2                !
 ! R6    R(4,6)                  1.07           estimate D2E/DX2                !
 ! R7    R(4,7)                  1.07           estimate D2E/DX2                !
 ! R8    R(8,9)                  0.96           estimate D2E/DX2                !
 ! A1    A(2,1,3)              109.4712         estimate D2E/DX2                !
 ! A2    A(2,1,4)              109.4712         estimate D2E/DX2                !
 ! A3    A(2,1,8)              109.4712         estimate D2E/DX2                !
 ! A4    A(3,1,4)              109.4712         estimate D2E/DX2                !
 ! A5    A(3,1,8)              109.4713         estimate D2E/DX2                !
 ! A6    A(4,1,8)              109.4712         estimate D2E/DX2                !
 ! A7    A(1,4,5)              109.4712         estimate D2E/DX2                !
 ! A8    A(1,4,6)              109.4712         estimate D2E/DX2                !
 ! A9    A(1,4,7)              109.4712         estimate D2E/DX2                !
 ! A10   A(5,4,6)              109.4713         estimate D2E/DX2                !
 ! A11   A(5,4,7)              109.4712         estimate D2E/DX2                !
 ! A12   A(6,4,7)              109.4712         estimate D2E/DX2                !
 ! A13   A(1,8,9)              109.5            estimate D2E/DX2                !
 ! D1    D(2,1,4,5)             59.8889         estimate D2E/DX2                !
 ! D2    D(2,1,4,6)            179.8889         estimate D2E/DX2                !
 ! D3    D(2,1,4,7)            -60.1111         estimate D2E/DX2                !
 ! D4    D(3,1,4,5)            -60.1111         estimate D2E/DX2                !
 ! D5    D(3,1,4,6)             59.8889         estimate D2E/DX2                !
 ! D6    D(3,1,4,7)            179.8889         estimate D2E/DX2                !
 ! D7    D(8,1,4,5)            179.8889         estimate D2E/DX2                !
 ! D8    D(8,1,4,6)            -60.1111         estimate D2E/DX2                !
 ! D9    D(8,1,4,7)             59.8889         estimate D2E/DX2                !
 ! D10   D(2,1,8,9)            -60.112          estimate D2E/DX2                !
 ! D11   D(3,1,8,9)             59.888          estimate D2E/DX2                !
 ! D12   D(4,1,8,9)            179.888          estimate D2E/DX2                !
 --------------------------------------------------------------------------------
 Trust Radius=3.00D-01 FncErr=1.00D-07 GrdErr=1.00D-06 EigMax=2.50D+02 EigMin=1.00D-04
 Number of steps in this run=     43 maximum allowed number of steps=    100.
 GradGradGradGradGradGradGradGradGradGradGradGradGradGradGradGradGradGrad

                          Input orientation:                          
 ---------------------------------------------------------------------
 Center     Atomic      Atomic             Coordinates (Angstroms)
 Number     Number       Type             X           Y           Z
 ---------------------------------------------------------------------
      1          6           0        0.160819    1.410819    0.000000
      2          1           0        0.517473    0.402009    0.000000
      3          1           0        0.517492    1.915217    0.873652
      4          6           0       -1.379181    1.410838    0.000000
      5          1           0       -1.735854    0.904746    0.872672
      6          1           0       -1.735835    2.419646    0.001956
      7          1           0       -1.735854    0.908134   -0.874628
      8          8           0        0.637494    2.084921   -1.167590
      9          1           0        1.597492    2.086682   -1.167124
 ---------------------------------------------------------------------
                    Distance matrix (angstroms):
                    1          2          3          4          5
     1  C    0.000000
     2  H    1.070000   0.000000
     3  H    1.070000   1.747302   0.000000
     4  C    1.540000   2.148263   2.148263   0.000000
     5  H    2.148263   2.468154   2.469538   1.070000   0.000000
     6  H    2.148263   3.024609   2.468154   1.070000   1.747303
     7  H    2.148263   2.469539   3.024610   1.070000   1.747303
     8  O    1.430000   2.051796   2.051796   2.425826   3.344886
     9  H    1.970533   2.316623   2.315290   3.267955   4.082761
                    6          7          8          9
     6  H    0.000000
     7  H    1.747303   0.000000
     8  O    2.666940   2.665227   0.000000
     9  H    3.548053   3.547637   0.960000   0.000000
 Stoichiometry    C2H6O
 Framework group  C1[X(C2H6O)]
 Deg. of freedom    21
 Full point group                 C1      NOp   1
 Largest Abelian subgroup         C1      NOp   1
 Largest concise Abelian subgroup C1      NOp   1
                         Standard orientation:                         
 ---------------------------------------------------------------------
 Center     Atomic      Atomic             Coordinates (Angstroms)
 Number     Number       Type             X           Y           Z
 ---------------------------------------------------------------------
      1          6           0       -0.087029    0.542650   -0.000097
      2          1           0       -0.146227    1.157532   -0.873775
      3          1           0       -0.146439    1.157590    0.873527
      4          6           0        1.249923   -0.221655    0.000092
      5          1           0        2.060234    0.477124   -0.001789
      6          1           0        1.309961   -0.835066    0.874747
      7          1           0        1.308493   -0.838065   -0.872552
      8          8           0       -1.169969   -0.391235   -0.000198
      9          1           0       -2.003632    0.084795    0.001453
 ---------------------------------------------------------------------
 Rotational constants (GHZ):          36.3552789           9.0935537           7.9810057
 Standard basis: 3-21G (6D, 7F)
 There are    39 symmetry adapted cartesian basis functions of A   symmetry.
 There are    39 symmetry adapted basis functions of A   symmetry.
    39 basis functions,    63 primitive gaussians,    39 cartesian basis functions
    13 alpha electrons       13 beta electrons
       nuclear repulsion energy        81.6946234223 Hartrees.
 NAtoms=    9 NActive=    9 NUniq=    9 SFac= 1.00D+00 NAtFMM=   60 NAOKFM=F Big=F
 Integral buffers will be    131072 words long.
 Raffenetti 2 integral format.
 Two-electron integral symmetry is turned on.
 ------------------------------------------------------------------------------
 Polarizable Continuum Model (PCM)
 =================================
 Model                : PCM.
 Atomic radii         : UFF (Universal Force Field).
 Polarization charges : Total charges.
 Charge compensation  : None.
 Solution method      : On-the-fly selection.
 Cavity type          : Scaled VdW (van der Waals Surface) (Alpha=1.100).
 Cavity algorithm     : GePol (No added spheres)
                        Default sphere list used, NSphG=    9.
                        Lebedev-Laikov grids with approx.  5.0 points / Ang**2.
                        Smoothing algorithm: York/Karplus (Gamma=1.0000).
                        Polarization charges: spherical gaussians, with
                                              point-specific exponents (IZeta= 3).
                        Self-potential: point-specific (ISelfS= 7).
                        Self-field    : sphere-specific E.n sum rule (ISelfD= 2).
 1st derivatives      : Analytical E(r).r(x)/FMM algorithm (CHGder, D1EAlg=3).
                        Cavity 1st derivative terms included.
 Solvent              : Water, Eps=  78.355300 Eps(inf)=   1.777849
 ------------------------------------------------------------------------------
 Spheres list:
 ISph  on   Nord     Re0    Alpha      Xe            Ye            Ze
    1   C      1    1.9255  1.100     -0.087029      0.542650     -0.000097
    2   H      2    1.4430  1.100     -0.146227      1.157532     -0.873775
    3   H      3    1.4430  1.100     -0.146439      1.157590      0.873527
    4   C      4    1.9255  1.100      1.249923     -0.221655      0.000092
    5   H      5    1.4430  1.100      2.060234      0.477124     -0.001789
    6   H      6    1.4430  1.100      1.309961     -0.835066      0.874747
    7   H      7    1.4430  1.100      1.308493     -0.838065     -0.872552
    8   O      8    1.7500  1.100     -1.169969     -0.391235     -0.000198
    9   H      9    1.4430  1.100     -2.003632      0.084795      0.001453
 ------------------------------------------------------------------------------
 One-electron integrals computed using PRISM.
 NBasis=    39 RedAO= T EigKep=  1.61D-02  NBF=    39
 NBsUse=    39 1.00D-06 EigRej= -1.00D+00 NBFU=    39
 ExpMin= 1.83D-01 ExpMax= 3.22D+02 ExpMxC= 3.22D+02 IAcc=3 IRadAn=         5 AccDes= 0.00D+00
 Harris functional with IExCor=  402 and IRadAn=       5 diagonalized for initial guess.
 HarFok:  IExCor=  402 AccDes= 0.00D+00 IRadAn=         5 IDoV= 1 UseB2=F ITyADJ=14
 ICtDFT=  3500011 ScaDFX=  1.000000  1.000000  1.000000  1.000000
 FoFCou: FMM=F IPFlag=           0 FMFlag=      100000 FMFlg1=           0
         NFxFlg=           0 DoJE=T BraDBF=F KetDBF=T FulRan=T
         wScrn=  0.000000 ICntrl=       500 IOpCl=  0 I1Cent=   200000004 NGrid=           0
         NMat0=    1 NMatS0=      1 NMatT0=    0 NMatD0=    1 NMtDS0=    0 NMtDT0=    0
 Petite list used in FoFCou.
 Keep R1 ints in memory in canonical form, NReq=6346318.
 Requested convergence on RMS density matrix=1.00D-08 within 128 cycles.
 Requested convergence on MAX density matrix=1.00D-06.
 Requested convergence on             energy=1.00D-06.
 No special actions if energy rises.
 Inv3:  Mode=1 IEnd=     2027052.
 Iteration    1 A*A^-1 deviation from unit magnitude is 3.33D-15 for    818.
 Iteration    1 A*A^-1 deviation from orthogonality  is 2.50D-15 for    818    666.
 Iteration    1 A^-1*A deviation from unit magnitude is 3.33D-15 for    818.
 Iteration    1 A^-1*A deviation from orthogonality  is 1.17D-15 for    799    112.
 Error on total polarization charges =  0.00372
 SCF Done:  E(RB3LYP) =  -154.181138802     A.U. after    9 cycles
            NFock=  9  Conv=0.52D-08     -V/T= 2.0068

 **********************************************************************

            Population analysis using the SCF density.

 **********************************************************************

 Orbital symmetries:
       Occupied  (A) (A) (A) (A) (A) (A) (A) (A) (A) (A) (A) (A)
                 (A)
       Virtual   (A) (A) (A) (A) (A) (A) (A) (A) (A) (A) (A) (A)
                 (A) (A) (A) (A) (A) (A) (A) (A) (A) (A) (A) (A)
                 (A) (A)
 The electronic state is 1-A.
 Alpha  occ. eigenvalues --  -19.00706 -10.15485 -10.10030  -1.00470  -0.74735
 Alpha  occ. eigenvalues --   -0.61225  -0.50372  -0.46652  -0.39113  -0.38250
 Alpha  occ. eigenvalues --   -0.36798  -0.30146  -0.24315
 Alpha virt. eigenvalues --    0.11264   0.15205   0.18850   0.19949   0.20526
 Alpha virt. eigenvalues --    0.22710   0.24179   0.25612   0.69855   0.71226
 Alpha virt. eigenvalues --    0.74436   0.77566   0.79701   0.87986   0.98232
 Alpha virt. eigenvalues --    1.04090   1.06496   1.08811   1.09770   1.14909
 Alpha virt. eigenvalues --    1.57833   1.60296   1.66130   1.81392   2.03361
 Alpha virt. eigenvalues --    3.02893
          Condensed to atoms (all electrons):
               1          2          3          4          5          6
     1  C    5.086410   0.341656   0.341644   0.261152  -0.034315  -0.038454
     2  H    0.341656   0.621501  -0.052871  -0.051105   0.000920   0.004932
     3  H    0.341644  -0.052871   0.621377  -0.050991   0.000918  -0.005734
     4  C    0.261152  -0.051105  -0.050991   5.399957   0.348579   0.360705
     5  H   -0.034315   0.000920   0.000918   0.348579   0.531565  -0.024713
     6  H   -0.038454   0.004932  -0.005734   0.360705  -0.024713   0.528850
     7  H   -0.038461  -0.005705   0.004935   0.360638  -0.024708  -0.030225
     8  O    0.261920  -0.040631  -0.040588  -0.044632   0.001568   0.002602
     9  H   -0.043910  -0.002700  -0.002742   0.005704  -0.000182  -0.000096
               7          8          9
     1  C   -0.038461   0.261920  -0.043910
     2  H   -0.005705  -0.040631  -0.002700
     3  H    0.004935  -0.040588  -0.002742
     4  C    0.360638  -0.044632   0.005704
     5  H   -0.024708   0.001568  -0.000182
     6  H   -0.030225   0.002602  -0.000096
     7  H    0.528864   0.002609  -0.000097
     8  O    0.002609   8.203511   0.258518
     9  H   -0.000097   0.258518   0.425680
 Mulliken charges:
               1
     1  C   -0.137643
     2  H    0.184002
     3  H    0.184051
     4  C   -0.590007
     5  H    0.200368
     6  H    0.202133
     7  H    0.202150
     8  O   -0.604878
     9  H    0.359825
 Sum of Mulliken charges =   0.00000
 Mulliken charges with hydrogens summed into heavy atoms:
               1
     1  C    0.230410
     4  C    0.014642
     8  O   -0.245052
 Electronic spatial extent (au):  <R**2>=            194.3271
 Charge=              0.0000 electrons
 Dipole moment (field-independent basis, Debye):
    X=             -0.3102    Y=              1.9647    Z=              0.0038  Tot=              1.9890
 Quadrupole moment (field-independent basis, Debye-Ang):
   XX=            -16.1013   YY=            -20.2688   ZZ=            -19.6522
   XY=             -2.0821   XZ=             -0.0074   YZ=              0.0005
 Traceless Quadrupole moment (field-independent basis, Debye-Ang):
   XX=              2.5728   YY=             -1.5947   ZZ=             -0.9781
   XY=             -2.0821   XZ=             -0.0074   YZ=              0.0005
 Octapole moment (field-independent basis, Debye-Ang**2):
  XXX=            -16.7532  YYY=             -0.5991  ZZZ=              0.0052  XYY=             -0.9345
  XXY=              2.9538  XXZ=              0.0129  XZZ=             -1.7557  YZZ=             -0.4621
  YYZ=             -0.0016  XYZ=             -0.0013
 Hexadecapole moment (field-independent basis, Debye-Ang**3):
 XXXX=           -128.9130 YYYY=            -52.5226 ZZZZ=            -29.8701 XXXY=              0.2450
 XXXZ=             -0.0328 YYYX=              1.2465 YYYZ=              0.0051 ZZZX=              0.0019
 ZZZY=             -0.0006 XXYY=            -34.9122 XXZZ=            -31.4833 YYZZ=            -12.6292
 XXYZ=             -0.0030 YYXZ=             -0.0043 ZZXY=             -0.5834
 N-N= 8.169462342226D+01 E-N=-5.238230113741D+02  KE= 1.531395033281D+02
 D1PCM: PCM CHGder 1st derivatives, ID1Alg=3 FixD1E=F DoIter=F DoCFld=F I1PDM=0.
 Calling FoFJK, ICntrl=      2127 FMM=F ISym2X=0 I1Cent= 0 IOpClX= 0 NMat=1 NMatS=1 NMatT=0.
 ***** Axes restored to original set *****
 -------------------------------------------------------------------
 Center     Atomic                   Forces (Hartrees/Bohr)
 Number     Number              X              Y              Z
 -------------------------------------------------------------------
      1        6          -0.011148902    0.001103418   -0.001925848
      2        1           0.004646385   -0.020653574    0.006128870
      3        1           0.004639427    0.005005498    0.020951921
      4        6           0.022678548    0.001649390   -0.002813901
      5        1          -0.005945320   -0.007934561    0.013691763
      6        1          -0.006451727    0.015798663   -0.000474431
      7        1          -0.006432964   -0.007452352   -0.013945050
      8        8          -0.032280255    0.013486327   -0.023455344
      9        1           0.030294808   -0.001002808    0.001842021
 -------------------------------------------------------------------
 Cartesian Forces:  Max     0.032280255 RMS     0.013864807

 GradGradGradGradGradGradGradGradGradGradGradGradGradGradGradGradGradGrad
 Berny optimization.
 FormGI is forming the generalized inverse of G from B-inverse, IUseBI=4.
 Internal  Forces:  Max     0.030291857 RMS     0.010420458
 Search for a local minimum.
 Step number   1 out of a maximum of   43
 All quantities printed in internal units (Hartrees-Bohrs-Radians)
 Mixed Optimization -- RFO/linear search
 Second derivative matrix not updated -- first step.
 ITU=  0
     Eigenvalues ---    0.00237   0.01295   0.05139   0.05720   0.05720
     Eigenvalues ---    0.05816   0.11239   0.13704   0.16000   0.16000
     Eigenvalues ---    0.16000   0.16000   0.22071   0.28519   0.37230
     Eigenvalues ---    0.37230   0.37230   0.37230   0.37230   0.40989
     Eigenvalues ---    0.55473
 RFO step:  Lambda=-9.62151187D-03 EMin= 2.36824209D-03
 Linear search not attempted -- first point.
 Iteration  1 RMS(Cart)=  0.03974943 RMS(Int)=  0.00084238
 Iteration  2 RMS(Cart)=  0.00069426 RMS(Int)=  0.00052078
 Iteration  3 RMS(Cart)=  0.00000120 RMS(Int)=  0.00052078
 Iteration  4 RMS(Cart)=  0.00000000 RMS(Int)=  0.00052078
 Variable       Old X    -DE/DX   Delta X   Delta X   Delta X     New X
                                 (Linear)    (Quad)   (Total)
    R1        2.02201   0.02102   0.00000   0.05504   0.05504   2.07705
    R2        2.02201   0.02101   0.00000   0.05502   0.05502   2.07703
    R3        2.91018  -0.00385   0.00000  -0.01306  -0.01306   2.89712
    R4        2.70231   0.02287   0.00000   0.05452   0.05452   2.75683
    R5        2.02201   0.01690   0.00000   0.04426   0.04426   2.06626
    R6        2.02201   0.01704   0.00000   0.04463   0.04463   2.06663
    R7        2.02201   0.01704   0.00000   0.04463   0.04463   2.06663
    R8        1.81414   0.03029   0.00000   0.05368   0.05368   1.86781
    A1        1.91063  -0.00282   0.00000  -0.02563  -0.02713   1.88350
    A2        1.91063   0.00039   0.00000  -0.01354  -0.01309   1.89754
    A3        1.91063   0.00795   0.00000   0.05399   0.05321   1.96384
    A4        1.91063   0.00039   0.00000  -0.01358  -0.01313   1.89750
    A5        1.91063   0.00795   0.00000   0.05398   0.05320   1.96383
    A6        1.91063  -0.01386   0.00000  -0.05521  -0.05483   1.85581
    A7        1.91063   0.00023   0.00000   0.00214   0.00213   1.91276
    A8        1.91063   0.00089   0.00000   0.00485   0.00484   1.91547
    A9        1.91063   0.00085   0.00000   0.00460   0.00459   1.91523
   A10        1.91063  -0.00044   0.00000  -0.00176  -0.00177   1.90886
   A11        1.91063  -0.00043   0.00000  -0.00178  -0.00179   1.90885
   A12        1.91063  -0.00109   0.00000  -0.00805  -0.00805   1.90258
   A13        1.91114  -0.00382   0.00000  -0.02255  -0.02255   1.88859
    D1        1.04526  -0.00149   0.00000  -0.02367  -0.02372   1.02154
    D2        3.13965  -0.00135   0.00000  -0.02155  -0.02160   3.11806
    D3       -1.04914  -0.00162   0.00000  -0.02562  -0.02567  -1.07481
    D4       -1.04914   0.00149   0.00000   0.02432   0.02437  -1.02477
    D5        1.04526   0.00163   0.00000   0.02644   0.02649   1.07175
    D6        3.13965   0.00136   0.00000   0.02238   0.02242  -3.12111
    D7        3.13965   0.00000   0.00000   0.00034   0.00034   3.13999
    D8       -1.04914   0.00014   0.00000   0.00246   0.00246  -1.04667
    D9        1.04526  -0.00013   0.00000  -0.00161  -0.00161   1.04365
   D10       -1.04915  -0.00314   0.00000  -0.01725  -0.01881  -1.06797
   D11        1.04524   0.00315   0.00000   0.01748   0.01905   1.06429
   D12        3.13964   0.00000   0.00000   0.00009   0.00009   3.13973
         Item               Value     Threshold  Converged?
 Maximum Force            0.030292     0.000450     NO 
 RMS     Force            0.010420     0.000300     NO 
 Maximum Displacement     0.107311     0.001800     NO 
 RMS     Displacement     0.039761     0.001200     NO 
 Predicted change in Energy=-4.978363D-03
 GradGradGradGradGradGradGradGradGradGradGradGradGradGradGradGradGradGrad

                          Input orientation:                          
 ---------------------------------------------------------------------
 Center     Atomic      Atomic             Coordinates (Angstroms)
 Number     Number       Type             X           Y           Z
 ---------------------------------------------------------------------
      1          6           0        0.171465    1.403611    0.012382
      2          1           0        0.516566    0.360473    0.041450
      3          1           0        0.516655    1.899665    0.930438
      4          6           0       -1.361475    1.414424   -0.006115
      5          1           0       -1.742501    0.900422    0.880558
      6          1           0       -1.723700    2.446299   -0.010886
      7          1           0       -1.723537    0.905636   -0.903912
      8          8           0        0.601172    2.100866   -1.194862
      9          1           0        1.589400    2.111614   -1.210116
 ---------------------------------------------------------------------
                    Distance matrix (angstroms):
                    1          2          3          4          5
     1  C    0.000000
     2  H    1.099126   0.000000
     3  H    1.099115   1.777474   0.000000
     4  C    1.533090   2.154092   2.154058   0.000000
     5  H    2.161063   2.469621   2.470781   1.093420   0.000000
     6  H    2.163189   3.061405   2.490801   1.093615   1.784590
     7  H    2.163009   2.491781   3.061273   1.093615   1.784578
     8  O    1.458853   2.136491   2.136475   2.395059   3.352796
     9  H    2.001576   2.404971   2.403680   3.262416   4.115758
                    6          7          8          9
     6  H    0.000000
     7  H    1.780768   0.000000
     8  O    2.631759   2.630114   0.000000
     9  H    3.539321   3.538883   0.988404   0.000000
 Stoichiometry    C2H6O
 Framework group  C1[X(C2H6O)]
 Deg. of freedom    21
 Full point group                 C1      NOp   1
 Largest Abelian subgroup         C1      NOp   1
 Largest concise Abelian subgroup C1      NOp   1
                         Standard orientation:                         
 ---------------------------------------------------------------------
 Center     Atomic      Atomic             Coordinates (Angstroms)
 Number     Number       Type             X           Y           Z
 ---------------------------------------------------------------------
      1          6           0       -0.075628    0.570686   -0.000080
      2          1           0       -0.088136    1.217266   -0.888818
      3          1           0       -0.088341    1.217247    0.888655
      4          6           0        1.225360   -0.240359    0.000097
      5          1           0        2.081469    0.439819   -0.001452
      6          1           0        1.266318   -0.872964    0.891236
      7          1           0        1.264880   -0.875178   -0.889530
      8          8           0       -1.164348   -0.400364   -0.000203
      9          1           0       -2.019798    0.094758    0.001431
 ---------------------------------------------------------------------
 Rotational constants (GHZ):          33.7201108           9.2516494           7.9923045
 Standard basis: 3-21G (6D, 7F)
 There are    39 symmetry adapted cartesian basis functions of A   symmetry.
 There are    39 symmetry adapted basis functions of A   symmetry.
    39 basis functions,    63 primitive gaussians,    39 cartesian basis functions
    13 alpha electrons       13 beta electrons
       nuclear repulsion energy        80.8245657127 Hartrees.
 NAtoms=    9 NActive=    9 NUniq=    9 SFac= 1.00D+00 NAtFMM=   60 NAOKFM=F Big=F
 Integral buffers will be    131072 words long.
 Raffenetti 2 integral format.
 Two-electron integral symmetry is turned on.
 ------------------------------------------------------------------------------
 Polarizable Continuum Model (PCM)
 =================================
 Model                : PCM.
 Atomic radii         : UFF (Universal Force Field).
 Polarization charges : Total charges.
 Charge compensation  : None.
 Solution method      : On-the-fly selection.
 Cavity type          : Scaled VdW (van der Waals Surface) (Alpha=1.100).
 Cavity algorithm     : GePol (No added spheres)
                        Default sphere list used, NSphG=    9.
                        Lebedev-Laikov grids with approx.  5.0 points / Ang**2.
                        Smoothing algorithm: York/Karplus (Gamma=1.0000).
                        Polarization charges: spherical gaussians, with
                                              point-specific exponents (IZeta= 3).
                        Self-potential: point-specific (ISelfS= 7).
                        Self-field    : sphere-specific E.n sum rule (ISelfD= 2).
 1st derivatives      : Analytical E(r).r(x)/FMM algorithm (CHGder, D1EAlg=3).
                        Cavity 1st derivative terms included.
 Solvent              : Water, Eps=  78.355300 Eps(inf)=   1.777849
 ------------------------------------------------------------------------------
 Spheres list:
 ISph  on   Nord     Re0    Alpha      Xe            Ye            Ze
    1   C      1    1.9255  1.100     -0.075628      0.570686     -0.000080
    2   H      2    1.4430  1.100     -0.088136      1.217266     -0.888818
    3   H      3    1.4430  1.100     -0.088341      1.217247      0.888655
    4   C      4    1.9255  1.100      1.225360     -0.240359      0.000097
    5   H      5    1.4430  1.100      2.081469      0.439819     -0.001452
    6   H      6    1.4430  1.100      1.266318     -0.872964      0.891236
    7   H      7    1.4430  1.100      1.264880     -0.875178     -0.889530
    8   O      8    1.7500  1.100     -1.164348     -0.400364     -0.000203
    9   H      9    1.4430  1.100     -2.019798      0.094758      0.001431
 ------------------------------------------------------------------------------
 One-electron integrals computed using PRISM.
 NBasis=    39 RedAO= T EigKep=  1.66D-02  NBF=    39
 NBsUse=    39 1.00D-06 EigRej= -1.00D+00 NBFU=    39
 Initial guess from the checkpoint file:  "ethanol.chk"
 B after Tr=    -0.000000    0.000000   -0.000000
         Rot=    0.999976   -0.000071    0.000006    0.006926 Ang=  -0.79 deg.
 ExpMin= 1.83D-01 ExpMax= 3.22D+02 ExpMxC= 3.22D+02 IAcc=2 IRadAn=         4 AccDes= 0.00D+00
 Harris functional with IExCor=  402 and IRadAn=       4 diagonalized for initial guess.
 HarFok:  IExCor=  402 AccDes= 0.00D+00 IRadAn=         4 IDoV= 1 UseB2=F ITyADJ=14
 ICtDFT=  3500011 ScaDFX=  1.000000  1.000000  1.000000  1.000000
 FoFCou: FMM=F IPFlag=           0 FMFlag=      100000 FMFlg1=           0
         NFxFlg=           0 DoJE=T BraDBF=F KetDBF=T FulRan=T
         wScrn=  0.000000 ICntrl=       500 IOpCl=  0 I1Cent=   200000004 NGrid=           0
         NMat0=    1 NMatS0=      1 NMatT0=    0 NMatD0=    1 NMtDS0=    0 NMtDT0=    0
 Petite list used in FoFCou.
 Keep R1 ints in memory in canonical form, NReq=6346318.
 Requested convergence on RMS density matrix=1.00D-08 within 128 cycles.
 Requested convergence on MAX density matrix=1.00D-06.
 Requested convergence on             energy=1.00D-06.
 No special actions if energy rises.
 Inv3:  Mode=1 IEnd=     1948908.
 Iteration    1 A*A^-1 deviation from unit magnitude is 3.66D-15 for    779.
 Iteration    1 A*A^-1 deviation from orthogonality  is 1.29D-15 for    756     96.
 Iteration    1 A^-1*A deviation from unit magnitude is 3.66D-15 for    779.
 Iteration    1 A^-1*A deviation from orthogonality  is 1.87D-15 for    799     90.
 Error on total polarization charges =  0.00386
 SCF Done:  E(RB3LYP) =  -154.185950999     A.U. after    9 cycles
            NFock=  9  Conv=0.52D-08     -V/T= 2.0086
 D1PCM: PCM CHGder 1st derivatives, ID1Alg=3 FixD1E=F DoIter=F DoCFld=F I1PDM=0.
 Calling FoFJK, ICntrl=      2127 FMM=F ISym2X=0 I1Cent= 0 IOpClX= 0 NMat=1 NMatS=1 NMatT=0.
 ***** Axes restored to original set *****
 -------------------------------------------------------------------
 Center     Atomic                   Forces (Hartrees/Bohr)
 Number     Number              X              Y              Z
 -------------------------------------------------------------------
      1        6          -0.004692697   -0.001180894    0.002063821
      2        1           0.002126074    0.000014501   -0.000620780
      3        1           0.002126922    0.000521578   -0.000316748
      4        6           0.002549860   -0.000001958   -0.000006045
      5        1          -0.001519352   -0.000077667    0.000143578
      6        1          -0.000539632    0.000145476   -0.000169155
      7        1          -0.000544752    0.000062623   -0.000206985
      8        8          -0.004918581    0.000936945   -0.001620472
      9        1           0.005412158   -0.000420604    0.000732787
 -------------------------------------------------------------------
 Cartesian Forces:  Max     0.005412158 RMS     0.001969209

 GradGradGradGradGradGradGradGradGradGradGradGradGradGradGradGradGradGrad
 Berny optimization.
 Using GEDIIS/GDIIS optimizer.
 FormGI is forming the generalized inverse of G from B-inverse, IUseBI=4.
 Internal  Forces:  Max     0.005396376 RMS     0.001319119
 Search for a local minimum.
 Step number   2 out of a maximum of   43
 All quantities printed in internal units (Hartrees-Bohrs-Radians)
 Mixed Optimization -- RFO/linear search
 Update second derivatives using D2CorX and points    1    2
 DE= -4.81D-03 DEPred=-4.98D-03 R= 9.67D-01
 TightC=F SS=  1.41D+00  RLast= 1.81D-01 DXNew= 5.0454D-01 5.4175D-01
 Trust test= 9.67D-01 RLast= 1.81D-01 DXMaxT set to 5.05D-01
 ITU=  1  0
 Use linear search instead of GDIIS.
     Eigenvalues ---    0.00237   0.01295   0.05442   0.05673   0.05679
     Eigenvalues ---    0.06174   0.11327   0.13455   0.15735   0.16000
     Eigenvalues ---    0.16000   0.16035   0.22238   0.28535   0.36809
     Eigenvalues ---    0.37230   0.37230   0.37230   0.37289   0.40636
     Eigenvalues ---    0.53038
 RFO step:  Lambda=-2.87663213D-04 EMin= 2.36824230D-03
 Quartic linear search produced a step of  0.02850.
 Iteration  1 RMS(Cart)=  0.01045973 RMS(Int)=  0.00012546
 Iteration  2 RMS(Cart)=  0.00009712 RMS(Int)=  0.00008050
 Iteration  3 RMS(Cart)=  0.00000001 RMS(Int)=  0.00008050
 Variable       Old X    -DE/DX   Delta X   Delta X   Delta X     New X
                                 (Linear)    (Quad)   (Total)
    R1        2.07705   0.00064   0.00157   0.00211   0.00368   2.08073
    R2        2.07703   0.00064   0.00157   0.00212   0.00368   2.08071
    R3        2.89712   0.00006  -0.00037   0.00012  -0.00025   2.89687
    R4        2.75683   0.00112   0.00155   0.00316   0.00472   2.76155
    R5        2.06626   0.00068   0.00126   0.00216   0.00343   2.06969
    R6        2.06663   0.00032   0.00127   0.00116   0.00243   2.06907
    R7        2.06663   0.00032   0.00127   0.00117   0.00245   2.06908
    R8        1.86781   0.00540   0.00153   0.01032   0.01185   1.87966
    A1        1.88350  -0.00081  -0.00077  -0.00459  -0.00573   1.87778
    A2        1.89754   0.00181  -0.00037   0.01722   0.01679   1.91433
    A3        1.96384  -0.00126   0.00152  -0.01359  -0.01213   1.95172
    A4        1.89750   0.00182  -0.00037   0.01729   0.01686   1.91436
    A5        1.96383  -0.00126   0.00152  -0.01357  -0.01210   1.95173
    A6        1.85581  -0.00005  -0.00156  -0.00029  -0.00180   1.85401
    A7        1.91276   0.00191   0.00006   0.01376   0.01379   1.92656
    A8        1.91547   0.00022   0.00014   0.00068   0.00081   1.91628
    A9        1.91523   0.00023   0.00013   0.00072   0.00084   1.91607
   A10        1.90886  -0.00091  -0.00005  -0.00435  -0.00443   1.90444
   A11        1.90885  -0.00091  -0.00005  -0.00436  -0.00444   1.90440
   A12        1.90258  -0.00055  -0.00023  -0.00662  -0.00684   1.89574
   A13        1.88859  -0.00177  -0.00064  -0.01153  -0.01217   1.87641
    D1        1.02154   0.00053  -0.00068   0.00831   0.00769   1.02923
    D2        3.11806   0.00073  -0.00062   0.01194   0.01139   3.12945
    D3       -1.07481   0.00033  -0.00073   0.00468   0.00400  -1.07081
    D4       -1.02477  -0.00052   0.00069  -0.00539  -0.00476  -1.02953
    D5        1.07175  -0.00032   0.00076  -0.00176  -0.00106   1.07069
    D6       -3.12111  -0.00072   0.00064  -0.00902  -0.00846  -3.12957
    D7        3.13999   0.00000   0.00001   0.00143   0.00144   3.14143
    D8       -1.04667   0.00020   0.00007   0.00506   0.00513  -1.04154
    D9        1.04365  -0.00020  -0.00005  -0.00221  -0.00226   1.04139
   D10       -1.06797   0.00148  -0.00054   0.01354   0.01286  -1.05510
   D11        1.06429  -0.00148   0.00054  -0.01290  -0.01221   1.05208
   D12        3.13973   0.00001   0.00000   0.00037   0.00037   3.14010
         Item               Value     Threshold  Converged?
 Maximum Force            0.005396     0.000450     NO 
 RMS     Force            0.001319     0.000300     NO 
 Maximum Displacement     0.031647     0.001800     NO 
 RMS     Displacement     0.010462     0.001200     NO 
 Predicted change in Energy=-1.483267D-04
 GradGradGradGradGradGradGradGradGradGradGradGradGradGradGradGradGradGrad

                          Input orientation:                          
 ---------------------------------------------------------------------
 Center     Atomic      Atomic             Coordinates (Angstroms)
 Number     Number       Type             X           Y           Z
 ---------------------------------------------------------------------
      1          6           0        0.169018    1.402374    0.014330
      2          1           0        0.532443    0.363240    0.036332
      3          1           0        0.532689    1.901418    0.925944
      4          6           0       -1.363797    1.413013   -0.003692
      5          1           0       -1.759248    0.901580    0.880383
      6          1           0       -1.727343    2.445756   -0.013075
      7          1           0       -1.727340    0.906270   -0.903622
      8          8           0        0.596493    2.101942   -1.195386
      9          1           0        1.591128    2.107418   -1.202276
 ---------------------------------------------------------------------
                    Distance matrix (angstroms):
                    1          2          3          4          5
     1  C    0.000000
     2  H    1.101073   0.000000
     3  H    1.101064   1.776908   0.000000
     4  C    1.532958   2.167799   2.167814   0.000000
     5  H    2.172338   2.500816   2.500945   1.095233   0.000000
     6  H    2.164621   3.073426   2.507151   1.094903   1.784311
     7  H    2.164469   2.506992   3.073330   1.094909   1.784296
     8  O    1.461349   2.131740   2.131741   2.395306   3.361428
     9  H    1.999903   2.386864   2.385802   3.263492   4.125110
                    6          7          8          9
     6  H    0.000000
     7  H    1.778508   0.000000
     8  O    2.629882   2.629630   0.000000
     9  H    3.541316   3.541776   0.994674   0.000000
 Stoichiometry    C2H6O
 Framework group  C1[X(C2H6O)]
 Deg. of freedom    21
 Full point group                 C1      NOp   1
 Largest Abelian subgroup         C1      NOp   1
 Largest concise Abelian subgroup C1      NOp   1
                         Standard orientation:                         
 ---------------------------------------------------------------------
 Center     Atomic      Atomic             Coordinates (Angstroms)
 Number     Number       Type             X           Y           Z
 ---------------------------------------------------------------------
      1          6           0       -0.075764    0.571751   -0.000063
      2          1           0       -0.109305    1.221237   -0.888548
      3          1           0       -0.109505    1.221295    0.888360
      4          6           0        1.227057   -0.236095    0.000085
      5          1           0        2.092291    0.435399   -0.000002
      6          1           0        1.267981   -0.873540    0.889355
      7          1           0        1.267888   -0.873601   -0.889153
      8          8           0       -1.162248   -0.405537   -0.000161
      9          1           0       -2.019126    0.099572    0.001153
 ---------------------------------------------------------------------
 Rotational constants (GHZ):          33.5845501           9.2451102           7.9785173
 Standard basis: 3-21G (6D, 7F)
 There are    39 symmetry adapted cartesian basis functions of A   symmetry.
 There are    39 symmetry adapted basis functions of A   symmetry.
    39 basis functions,    63 primitive gaussians,    39 cartesian basis functions
    13 alpha electrons       13 beta electrons
       nuclear repulsion energy        80.7197963820 Hartrees.
 NAtoms=    9 NActive=    9 NUniq=    9 SFac= 1.00D+00 NAtFMM=   60 NAOKFM=F Big=F
 Integral buffers will be    131072 words long.
 Raffenetti 2 integral format.
 Two-electron integral symmetry is turned on.
 ------------------------------------------------------------------------------
 Polarizable Continuum Model (PCM)
 =================================
 Model                : PCM.
 Atomic radii         : UFF (Universal Force Field).
 Polarization charges : Total charges.
 Charge compensation  : None.
 Solution method      : On-the-fly selection.
 Cavity type          : Scaled VdW (van der Waals Surface) (Alpha=1.100).
 Cavity algorithm     : GePol (No added spheres)
                        Default sphere list used, NSphG=    9.
                        Lebedev-Laikov grids with approx.  5.0 points / Ang**2.
                        Smoothing algorithm: York/Karplus (Gamma=1.0000).
                        Polarization charges: spherical gaussians, with
                                              point-specific exponents (IZeta= 3).
                        Self-potential: point-specific (ISelfS= 7).
                        Self-field    : sphere-specific E.n sum rule (ISelfD= 2).
 1st derivatives      : Analytical E(r).r(x)/FMM algorithm (CHGder, D1EAlg=3).
                        Cavity 1st derivative terms included.
 Solvent              : Water, Eps=  78.355300 Eps(inf)=   1.777849
 ------------------------------------------------------------------------------
 Spheres list:
 ISph  on   Nord     Re0    Alpha      Xe            Ye            Ze
    1   C      1    1.9255  1.100     -0.075764      0.571751     -0.000063
    2   H      2    1.4430  1.100     -0.109305      1.221237     -0.888548
    3   H      3    1.4430  1.100     -0.109505      1.221295      0.888360
    4   C      4    1.9255  1.100      1.227057     -0.236095      0.000085
    5   H      5    1.4430  1.100      2.092291      0.435399     -0.000002
    6   H      6    1.4430  1.100      1.267981     -0.873540      0.889355
    7   H      7    1.4430  1.100      1.267888     -0.873601     -0.889153
    8   O      8    1.7500  1.100     -1.162248     -0.405537     -0.000161
    9   H      9    1.4430  1.100     -2.019126      0.099572      0.001153
 ------------------------------------------------------------------------------
 One-electron integrals computed using PRISM.
 NBasis=    39 RedAO= T EigKep=  1.68D-02  NBF=    39
 NBsUse=    39 1.00D-06 EigRej= -1.00D+00 NBFU=    39
 Initial guess from the checkpoint file:  "ethanol.chk"
 B after Tr=     0.000000   -0.000000    0.000000
         Rot=    0.999999   -0.000160    0.000034   -0.001520 Ang=  -0.18 deg.
 ExpMin= 1.83D-01 ExpMax= 3.22D+02 ExpMxC= 3.22D+02 IAcc=2 IRadAn=         4 AccDes= 0.00D+00
 Harris functional with IExCor=  402 and IRadAn=       4 diagonalized for initial guess.
 HarFok:  IExCor=  402 AccDes= 0.00D+00 IRadAn=         4 IDoV= 1 UseB2=F ITyADJ=14
 ICtDFT=  3500011 ScaDFX=  1.000000  1.000000  1.000000  1.000000
 FoFCou: FMM=F IPFlag=           0 FMFlag=      100000 FMFlg1=           0
         NFxFlg=           0 DoJE=T BraDBF=F KetDBF=T FulRan=T
         wScrn=  0.000000 ICntrl=       500 IOpCl=  0 I1Cent=   200000004 NGrid=           0
         NMat0=    1 NMatS0=      1 NMatT0=    0 NMatD0=    1 NMtDS0=    0 NMtDT0=    0
 Petite list used in FoFCou.
 Keep R1 ints in memory in canonical form, NReq=6346318.
 Requested convergence on RMS density matrix=1.00D-08 within 128 cycles.
 Requested convergence on MAX density matrix=1.00D-06.
 Requested convergence on             energy=1.00D-06.
 No special actions if energy rises.
 Inv3:  Mode=1 IEnd=     1968300.
 Iteration    1 A*A^-1 deviation from unit magnitude is 2.33D-15 for    808.
 Iteration    1 A*A^-1 deviation from orthogonality  is 1.60D-15 for    774    125.
 Iteration    1 A^-1*A deviation from unit magnitude is 2.33D-15 for    808.
 Iteration    1 A^-1*A deviation from orthogonality  is 1.60D-15 for    723    256.
 Error on total polarization charges =  0.00388
 SCF Done:  E(RB3LYP) =  -154.186101003     A.U. after    8 cycles
            NFock=  8  Conv=0.97D-08     -V/T= 2.0087
 D1PCM: PCM CHGder 1st derivatives, ID1Alg=3 FixD1E=F DoIter=F DoCFld=F I1PDM=0.
 Calling FoFJK, ICntrl=      2127 FMM=F ISym2X=0 I1Cent= 0 IOpClX= 0 NMat=1 NMatS=1 NMatT=0.
 ***** Axes restored to original set *****
 -------------------------------------------------------------------
 Center     Atomic                   Forces (Hartrees/Bohr)
 Number     Number              X              Y              Z
 -------------------------------------------------------------------
      1        6          -0.001511333   -0.001145156    0.001999776
      2        1          -0.000298951    0.000559623   -0.000095714
      3        1          -0.000300885   -0.000192649   -0.000531896
      4        6           0.001197549   -0.000229995    0.000361941
      5        1           0.000036775    0.000304838   -0.000527237
      6        1           0.000239255   -0.000345740    0.000010947
      7        1           0.000223088    0.000166702    0.000307461
      8        8           0.000098091    0.000906261   -0.001552358
      9        1           0.000316411   -0.000023884    0.000027080
 -------------------------------------------------------------------
 Cartesian Forces:  Max     0.001999776 RMS     0.000722606

 GradGradGradGradGradGradGradGradGradGradGradGradGradGradGradGradGradGrad
 Berny optimization.
 Using GEDIIS/GDIIS optimizer.
 FormGI is forming the generalized inverse of G from B-inverse, IUseBI=4.
 Internal  Forces:  Max     0.001805083 RMS     0.000491413
 Search for a local minimum.
 Step number   3 out of a maximum of   43
 All quantities printed in internal units (Hartrees-Bohrs-Radians)
 Mixed Optimization -- En-DIIS/RFO-DIIS
 Update second derivatives using D2CorX and points    1    2    3
 DE= -1.50D-04 DEPred=-1.48D-04 R= 1.01D+00
 TightC=F SS=  1.41D+00  RLast= 4.67D-02 DXNew= 8.4853D-01 1.4019D-01
 Trust test= 1.01D+00 RLast= 4.67D-02 DXMaxT set to 5.05D-01
 ITU=  1  1  0
 Use linear search instead of GDIIS.
     Eigenvalues ---    0.00237   0.01295   0.05406   0.05578   0.05590
     Eigenvalues ---    0.06020   0.11277   0.13473   0.14886   0.16000
     Eigenvalues ---    0.16010   0.16125   0.22203   0.29238   0.37230
     Eigenvalues ---    0.37230   0.37230   0.37247   0.37498   0.40867
     Eigenvalues ---    0.53785
 RFO step:  Lambda=-2.51571586D-05 EMin= 2.36835435D-03
 Quartic linear search produced a step of  0.01900.
 Iteration  1 RMS(Cart)=  0.00222755 RMS(Int)=  0.00000346
 Iteration  2 RMS(Cart)=  0.00000316 RMS(Int)=  0.00000170
 Iteration  3 RMS(Cart)=  0.00000000 RMS(Int)=  0.00000170
 Variable       Old X    -DE/DX   Delta X   Delta X   Delta X     New X
                                 (Linear)    (Quad)   (Total)
    R1        2.08073  -0.00063   0.00007  -0.00132  -0.00125   2.07947
    R2        2.08071  -0.00063   0.00007  -0.00132  -0.00125   2.07946
    R3        2.89687  -0.00170  -0.00000  -0.00613  -0.00614   2.89073
    R4        2.76155   0.00181   0.00009   0.00496   0.00505   2.76660
    R5        2.06969  -0.00058   0.00007  -0.00124  -0.00118   2.06851
    R6        2.06907  -0.00041   0.00005  -0.00082  -0.00078   2.06829
    R7        2.06908  -0.00040   0.00005  -0.00082  -0.00077   2.06831
    R8        1.87966   0.00032   0.00023   0.00152   0.00174   1.88140
    A1        1.87778   0.00009  -0.00011   0.00092   0.00080   1.87857
    A2        1.91433  -0.00004   0.00032   0.00057   0.00089   1.91522
    A3        1.95172   0.00006  -0.00023  -0.00048  -0.00071   1.95101
    A4        1.91436  -0.00004   0.00032   0.00060   0.00092   1.91528
    A5        1.95173   0.00006  -0.00023  -0.00046  -0.00069   1.95104
    A6        1.85401  -0.00013  -0.00003  -0.00113  -0.00117   1.85284
    A7        1.92656   0.00034   0.00026   0.00338   0.00364   1.93019
    A8        1.91628  -0.00019   0.00002  -0.00135  -0.00133   1.91495
    A9        1.91607  -0.00017   0.00002  -0.00112  -0.00111   1.91496
   A10        1.90444  -0.00004  -0.00008  -0.00030  -0.00038   1.90405
   A11        1.90440  -0.00005  -0.00008  -0.00029  -0.00038   1.90403
   A12        1.89574   0.00011  -0.00013  -0.00036  -0.00049   1.89525
   A13        1.87641  -0.00007  -0.00023  -0.00134  -0.00157   1.87484
    D1        1.02923   0.00003   0.00015   0.00086   0.00101   1.03025
    D2        3.12945   0.00007   0.00022   0.00177   0.00199   3.13144
    D3       -1.07081  -0.00001   0.00008  -0.00019  -0.00011  -1.07092
    D4       -1.02953  -0.00003  -0.00009  -0.00095  -0.00104  -1.03057
    D5        1.07069   0.00001  -0.00002  -0.00004  -0.00006   1.07063
    D6       -3.12957  -0.00007  -0.00016  -0.00200  -0.00216  -3.13173
    D7        3.14143   0.00000   0.00003  -0.00006  -0.00003   3.14140
    D8       -1.04154   0.00004   0.00010   0.00085   0.00094  -1.04059
    D9        1.04139  -0.00004  -0.00004  -0.00112  -0.00116   1.04023
   D10       -1.05510  -0.00009   0.00024   0.00011   0.00035  -1.05475
   D11        1.05208   0.00010  -0.00023   0.00063   0.00040   1.05248
   D12        3.14010   0.00001   0.00001   0.00039   0.00040   3.14050
         Item               Value     Threshold  Converged?
 Maximum Force            0.001805     0.000450     NO 
 RMS     Force            0.000491     0.000300     NO 
 Maximum Displacement     0.006313     0.001800     NO 
 RMS     Displacement     0.002228     0.001200     NO 
 Predicted change in Energy=-1.262654D-05
 GradGradGradGradGradGradGradGradGradGradGradGradGradGradGradGradGradGrad

                          Input orientation:                          
 ---------------------------------------------------------------------
 Center     Atomic      Atomic             Coordinates (Angstroms)
 Number     Number       Type             X           Y           Z
 ---------------------------------------------------------------------
      1          6           0        0.167525    1.401691    0.015648
      2          1           0        0.531605    0.363469    0.036652
      3          1           0        0.531754    1.901162    0.926006
      4          6           0       -1.362038    1.412389   -0.002702
      5          1           0       -1.761212    0.901967    0.879511
      6          1           0       -1.724002    2.445242   -0.013132
      7          1           0       -1.724097    0.906675   -0.903312
      8          8           0        0.594473    2.102758   -1.196614
      9          1           0        1.590035    2.107659   -1.203119
 ---------------------------------------------------------------------
                    Distance matrix (angstroms):
                    1          2          3          4          5
     1  C    0.000000
     2  H    1.100410   0.000000
     3  H    1.100403   1.776359   0.000000
     4  C    1.529710   2.165102   2.165143   0.000000
     5  H    2.171638   2.501480   2.501649   1.094610   0.000000
     6  H    2.160487   3.069857   2.503286   1.094492   1.783225
     7  H    2.160500   2.503357   3.069898   1.094501   1.783215
     8  O    1.464021   2.133079   2.133095   2.393736   3.361763
     9  H    2.001828   2.387364   2.386582   3.261769   4.125760
                    6          7          8          9
     6  H    0.000000
     7  H    1.777528   0.000000
     8  O    2.625501   2.625340   0.000000
     9  H    3.537354   3.537756   0.995595   0.000000
 Stoichiometry    C2H6O
 Framework group  C1[X(C2H6O)]
 Deg. of freedom    21
 Full point group                 C1      NOp   1
 Largest Abelian subgroup         C1      NOp   1
 Largest concise Abelian subgroup C1      NOp   1
                         Standard orientation:                         
 ---------------------------------------------------------------------
 Center     Atomic      Atomic             Coordinates (Angstroms)
 Number     Number       Type             X           Y           Z
 ---------------------------------------------------------------------
      1          6           0       -0.072936    0.572571   -0.000053
      2          1           0       -0.106258    1.221298   -0.888279
      3          1           0       -0.106422    1.221405    0.888080
      4          6           0        1.225152   -0.236737    0.000061
      5          1           0        2.093957    0.429107   -0.000087
      6          1           0        1.262789   -0.874234    0.888932
      7          1           0        1.262762   -0.874551   -0.888596
      8          8           0       -1.162654   -0.405116   -0.000117
      9          1           0       -2.018886    0.102895    0.000842
 ---------------------------------------------------------------------
 Rotational constants (GHZ):          33.5736575           9.2568859           7.9859780
 Standard basis: 3-21G (6D, 7F)
 There are    39 symmetry adapted cartesian basis functions of A   symmetry.
 There are    39 symmetry adapted basis functions of A   symmetry.
    39 basis functions,    63 primitive gaussians,    39 cartesian basis functions
    13 alpha electrons       13 beta electrons
       nuclear repulsion energy        80.7377588178 Hartrees.
 NAtoms=    9 NActive=    9 NUniq=    9 SFac= 1.00D+00 NAtFMM=   60 NAOKFM=F Big=F
 Integral buffers will be    131072 words long.
 Raffenetti 2 integral format.
 Two-electron integral symmetry is turned on.
 ------------------------------------------------------------------------------
 Polarizable Continuum Model (PCM)
 =================================
 Model                : PCM.
 Atomic radii         : UFF (Universal Force Field).
 Polarization charges : Total charges.
 Charge compensation  : None.
 Solution method      : On-the-fly selection.
 Cavity type          : Scaled VdW (van der Waals Surface) (Alpha=1.100).
 Cavity algorithm     : GePol (No added spheres)
                        Default sphere list used, NSphG=    9.
                        Lebedev-Laikov grids with approx.  5.0 points / Ang**2.
                        Smoothing algorithm: York/Karplus (Gamma=1.0000).
                        Polarization charges: spherical gaussians, with
                                              point-specific exponents (IZeta= 3).
                        Self-potential: point-specific (ISelfS= 7).
                        Self-field    : sphere-specific E.n sum rule (ISelfD= 2).
 1st derivatives      : Analytical E(r).r(x)/FMM algorithm (CHGder, D1EAlg=3).
                        Cavity 1st derivative terms included.
 Solvent              : Water, Eps=  78.355300 Eps(inf)=   1.777849
 ------------------------------------------------------------------------------
 Spheres list:
 ISph  on   Nord     Re0    Alpha      Xe            Ye            Ze
    1   C      1    1.9255  1.100     -0.072936      0.572571     -0.000053
    2   H      2    1.4430  1.100     -0.106258      1.221298     -0.888279
    3   H      3    1.4430  1.100     -0.106422      1.221405      0.888080
    4   C      4    1.9255  1.100      1.225152     -0.236737      0.000061
    5   H      5    1.4430  1.100      2.093957      0.429107     -0.000087
    6   H      6    1.4430  1.100      1.262789     -0.874234      0.888932
    7   H      7    1.4430  1.100      1.262762     -0.874551     -0.888596
    8   O      8    1.7500  1.100     -1.162654     -0.405116     -0.000117
    9   H      9    1.4430  1.100     -2.018886      0.102895      0.000842
 ------------------------------------------------------------------------------
 One-electron integrals computed using PRISM.
 NBasis=    39 RedAO= T EigKep=  1.67D-02  NBF=    39
 NBsUse=    39 1.00D-06 EigRej= -1.00D+00 NBFU=    39
 Initial guess from the checkpoint file:  "ethanol.chk"
 B after Tr=    -0.000000   -0.000000   -0.000000
         Rot=    1.000000    0.000024    0.000001    0.000777 Ang=   0.09 deg.
 Keep R1 ints in memory in canonical form, NReq=6346318.
 Requested convergence on RMS density matrix=1.00D-08 within 128 cycles.
 Requested convergence on MAX density matrix=1.00D-06.
 Requested convergence on             energy=1.00D-06.
 No special actions if energy rises.
 Inv3:  Mode=1 IEnd=     1968300.
 Iteration    1 A*A^-1 deviation from unit magnitude is 3.00D-15 for    808.
 Iteration    1 A*A^-1 deviation from orthogonality  is 1.41D-15 for    688    447.
 Iteration    1 A^-1*A deviation from unit magnitude is 2.89D-15 for    795.
 Iteration    1 A^-1*A deviation from orthogonality  is 1.06D-15 for    693     60.
 Error on total polarization charges =  0.00387
 SCF Done:  E(RB3LYP) =  -154.186115770     A.U. after    8 cycles
            NFock=  8  Conv=0.19D-08     -V/T= 2.0087
 D1PCM: PCM CHGder 1st derivatives, ID1Alg=3 FixD1E=F DoIter=F DoCFld=F I1PDM=0.
 Calling FoFJK, ICntrl=      2127 FMM=F ISym2X=0 I1Cent= 0 IOpClX= 0 NMat=1 NMatS=1 NMatT=0.
 ***** Axes restored to original set *****
 -------------------------------------------------------------------
 Center     Atomic                   Forces (Hartrees/Bohr)
 Number     Number              X              Y              Z
 -------------------------------------------------------------------
      1        6          -0.000106819   -0.000607036    0.001029983
      2        1          -0.000063020    0.000269760   -0.000123055
      3        1          -0.000070384   -0.000024499   -0.000295185
      4        6           0.000070880    0.000035656   -0.000060876
      5        1           0.000098160    0.000087226   -0.000149294
      6        1          -0.000023226   -0.000086489    0.000005334
      7        1          -0.000018228    0.000040184    0.000080909
      8        8           0.000492404    0.000311486   -0.000521868
      9        1          -0.000379767   -0.000026289    0.000034051
 -------------------------------------------------------------------
 Cartesian Forces:  Max     0.001029983 RMS     0.000301190

 GradGradGradGradGradGradGradGradGradGradGradGradGradGradGradGradGradGrad
 Berny optimization.
 Using GEDIIS/GDIIS optimizer.
 FormGI is forming the generalized inverse of G from B-inverse, IUseBI=4.
 Internal  Forces:  Max     0.000572074 RMS     0.000151504
 Search for a local minimum.
 Step number   4 out of a maximum of   43
 All quantities printed in internal units (Hartrees-Bohrs-Radians)
 Mixed Optimization -- En-DIIS/RFO-DIIS
 Swapping is turned off.
 Update second derivatives using D2CorX and points    1    2    3    4
 DE= -1.48D-05 DEPred=-1.26D-05 R= 1.17D+00
 TightC=F SS=  1.41D+00  RLast= 1.04D-02 DXNew= 8.4853D-01 3.1347D-02
 Trust test= 1.17D+00 RLast= 1.04D-02 DXMaxT set to 5.05D-01
 ITU=  1  1  1  0
     Eigenvalues ---    0.00237   0.01294   0.05413   0.05515   0.05558
     Eigenvalues ---    0.05825   0.10768   0.13468   0.14794   0.16000
     Eigenvalues ---    0.16022   0.16596   0.22055   0.30106   0.34601
     Eigenvalues ---    0.37213   0.37230   0.37230   0.37277   0.37539
     Eigenvalues ---    0.55527
 En-DIIS/RFO-DIIS/Sim-DIIS IScMMF=       -3 using points:     4    3
 RFO step:  Lambda=-3.18366417D-06.
 DidBck=F Rises=F RFO-DIIS coefs:    1.30856   -0.30856
 Iteration  1 RMS(Cart)=  0.00055187 RMS(Int)=  0.00000086
 Iteration  2 RMS(Cart)=  0.00000068 RMS(Int)=  0.00000064
 Variable       Old X    -DE/DX   Delta X   Delta X   Delta X     New X
                                 (Linear)    (Quad)   (Total)
    R1        2.07947  -0.00028  -0.00039  -0.00049  -0.00087   2.07860
    R2        2.07946  -0.00028  -0.00039  -0.00049  -0.00088   2.07858
    R3        2.89073  -0.00013  -0.00189   0.00081  -0.00108   2.88965
    R4        2.76660   0.00057   0.00156   0.00070   0.00226   2.76886
    R5        2.06851  -0.00020  -0.00036  -0.00026  -0.00063   2.06789
    R6        2.06829  -0.00007  -0.00024   0.00003  -0.00021   2.06808
    R7        2.06831  -0.00008  -0.00024   0.00001  -0.00023   2.06808
    R8        1.88140  -0.00038   0.00054  -0.00095  -0.00041   1.88099
    A1        1.87857   0.00004   0.00025   0.00091   0.00115   1.87973
    A2        1.91522   0.00006   0.00027   0.00073   0.00100   1.91622
    A3        1.95101  -0.00003  -0.00022  -0.00075  -0.00097   1.95004
    A4        1.91528   0.00006   0.00028   0.00064   0.00092   1.91620
    A5        1.95104  -0.00003  -0.00021  -0.00078  -0.00100   1.95005
    A6        1.85284  -0.00010  -0.00036  -0.00071  -0.00107   1.85177
    A7        1.93019  -0.00007   0.00112  -0.00120  -0.00008   1.93011
    A8        1.91495   0.00007  -0.00041   0.00092   0.00051   1.91546
    A9        1.91496   0.00007  -0.00034   0.00082   0.00048   1.91543
   A10        1.90405  -0.00001  -0.00012  -0.00020  -0.00031   1.90374
   A11        1.90403  -0.00001  -0.00012  -0.00019  -0.00030   1.90372
   A12        1.89525  -0.00005  -0.00015  -0.00015  -0.00030   1.89494
   A13        1.87484  -0.00008  -0.00048  -0.00046  -0.00095   1.87390
    D1        1.03025   0.00006   0.00031   0.00106   0.00138   1.03162
    D2        3.13144   0.00005   0.00061   0.00065   0.00127   3.13271
    D3       -1.07092   0.00007  -0.00003   0.00153   0.00150  -1.06942
    D4       -1.03057  -0.00006  -0.00032  -0.00086  -0.00118  -1.03175
    D5        1.07063  -0.00007  -0.00002  -0.00127  -0.00129   1.06934
    D6       -3.13173  -0.00005  -0.00067  -0.00039  -0.00106  -3.13279
    D7        3.14140   0.00000  -0.00001   0.00015   0.00014   3.14153
    D8       -1.04059  -0.00001   0.00029  -0.00027   0.00003  -1.04057
    D9        1.04023   0.00001  -0.00036   0.00061   0.00026   1.04049
   D10       -1.05475   0.00000   0.00011   0.00019   0.00030  -1.05445
   D11        1.05248   0.00001   0.00012   0.00028   0.00040   1.05289
   D12        3.14050   0.00000   0.00012   0.00018   0.00030   3.14080
         Item               Value     Threshold  Converged?
 Maximum Force            0.000572     0.000450     NO 
 RMS     Force            0.000152     0.000300     YES
 Maximum Displacement     0.001710     0.001800     YES
 RMS     Displacement     0.000552     0.001200     YES
 Predicted change in Energy=-1.592343D-06
 GradGradGradGradGradGradGradGradGradGradGradGradGradGradGradGradGradGrad

                          Input orientation:                          
 ---------------------------------------------------------------------
 Center     Atomic      Atomic             Coordinates (Angstroms)
 Number     Number       Type             X           Y           Z
 ---------------------------------------------------------------------
      1          6           0        0.167300    1.401178    0.016552
      2          1           0        0.531914    0.363610    0.036390
      3          1           0        0.531972    1.901243    0.925846
      4          6           0       -1.361676    1.412395   -0.002709
      5          1           0       -1.761353    0.902283    0.879045
      6          1           0       -1.723772    2.445083   -0.013287
      7          1           0       -1.723825    0.906808   -0.903209
      8          8           0        0.594067    2.103018   -1.196770
      9          1           0        1.589417    2.107394   -1.202922
 ---------------------------------------------------------------------
                    Distance matrix (angstroms):
                    1          2          3          4          5
     1  C    0.000000
     2  H    1.099947   0.000000
     3  H    1.099939   1.776358   0.000000
     4  C    1.529139   2.164985   2.164969   0.000000
     5  H    2.170827   2.501860   2.501889   1.094278   0.000000
     6  H    2.160273   3.069709   2.503220   1.094381   1.782666
     7  H    2.160259   2.503251   3.069685   1.094381   1.782655
     8  O    1.465217   2.133093   2.133088   2.393256   3.361365
     9  H    2.002068   2.386418   2.385862   3.260750   4.124868
                    6          7          8          9
     6  H    0.000000
     7  H    1.777147   0.000000
     8  O    2.624884   2.624827   0.000000
     9  H    3.536451   3.536779   0.995378   0.000000
 Stoichiometry    C2H6O
 Framework group  C1[X(C2H6O)]
 Deg. of freedom    21
 Full point group                 C1      NOp   1
 Largest Abelian subgroup         C1      NOp   1
 Largest concise Abelian subgroup C1      NOp   1
                         Standard orientation:                         
 ---------------------------------------------------------------------
 Center     Atomic      Atomic             Coordinates (Angstroms)
 Number     Number       Type             X           Y           Z
 ---------------------------------------------------------------------
      1          6           0       -0.072191    0.573299   -0.000038
      2          1           0       -0.106461    1.221243   -0.888226
      3          1           0       -0.106546    1.221249    0.888132
      4          6           0        1.224639   -0.236946    0.000041
      5          1           0        2.093763    0.427935    0.000020
      6          1           0        1.262166   -0.874638    0.888641
      7          1           0        1.262203   -0.874712   -0.888506
      8          8           0       -1.162688   -0.405311   -0.000086
      9          1           0       -2.018310    0.103302    0.000612
 ---------------------------------------------------------------------
 Rotational constants (GHZ):          33.5462281           9.2605257           7.9869599
 Standard basis: 3-21G (6D, 7F)
 There are    39 symmetry adapted cartesian basis functions of A   symmetry.
 There are    39 symmetry adapted basis functions of A   symmetry.
    39 basis functions,    63 primitive gaussians,    39 cartesian basis functions
    13 alpha electrons       13 beta electrons
       nuclear repulsion energy        80.7377259073 Hartrees.
 NAtoms=    9 NActive=    9 NUniq=    9 SFac= 1.00D+00 NAtFMM=   60 NAOKFM=F Big=F
 Integral buffers will be    131072 words long.
 Raffenetti 2 integral format.
 Two-electron integral symmetry is turned on.
 ------------------------------------------------------------------------------
 Polarizable Continuum Model (PCM)
 =================================
 Model                : PCM.
 Atomic radii         : UFF (Universal Force Field).
 Polarization charges : Total charges.
 Charge compensation  : None.
 Solution method      : On-the-fly selection.
 Cavity type          : Scaled VdW (van der Waals Surface) (Alpha=1.100).
 Cavity algorithm     : GePol (No added spheres)
                        Default sphere list used, NSphG=    9.
                        Lebedev-Laikov grids with approx.  5.0 points / Ang**2.
                        Smoothing algorithm: York/Karplus (Gamma=1.0000).
                        Polarization charges: spherical gaussians, with
                                              point-specific exponents (IZeta= 3).
                        Self-potential: point-specific (ISelfS= 7).
                        Self-field    : sphere-specific E.n sum rule (ISelfD= 2).
 1st derivatives      : Analytical E(r).r(x)/FMM algorithm (CHGder, D1EAlg=3).
                        Cavity 1st derivative terms included.
 Solvent              : Water, Eps=  78.355300 Eps(inf)=   1.777849
 ------------------------------------------------------------------------------
 Spheres list:
 ISph  on   Nord     Re0    Alpha      Xe            Ye            Ze
    1   C      1    1.9255  1.100     -0.072191      0.573299     -0.000038
    2   H      2    1.4430  1.100     -0.106461      1.221243     -0.888226
    3   H      3    1.4430  1.100     -0.106546      1.221249      0.888132
    4   C      4    1.9255  1.100      1.224639     -0.236946      0.000041
    5   H      5    1.4430  1.100      2.093763      0.427935      0.000020
    6   H      6    1.4430  1.100      1.262166     -0.874638      0.888641
    7   H      7    1.4430  1.100      1.262203     -0.874712     -0.888506
    8   O      8    1.7500  1.100     -1.162688     -0.405311     -0.000086
    9   H      9    1.4430  1.100     -2.018310      0.103302      0.000612
 ------------------------------------------------------------------------------
 One-electron integrals computed using PRISM.
 NBasis=    39 RedAO= T EigKep=  1.67D-02  NBF=    39
 NBsUse=    39 1.00D-06 EigRej= -1.00D+00 NBFU=    39
 Initial guess from the checkpoint file:  "ethanol.chk"
 B after Tr=     0.000000    0.000000    0.000000
         Rot=    1.000000   -0.000027   -0.000000    0.000101 Ang=  -0.01 deg.
 Keep R1 ints in memory in canonical form, NReq=6346318.
 Requested convergence on RMS density matrix=1.00D-08 within 128 cycles.
 Requested convergence on MAX density matrix=1.00D-06.
 Requested convergence on             energy=1.00D-06.
 No special actions if energy rises.
 Inv3:  Mode=1 IEnd=     1968300.
 Iteration    1 A*A^-1 deviation from unit magnitude is 2.44D-15 for    808.
 Iteration    1 A*A^-1 deviation from orthogonality  is 1.65D-15 for    658    476.
 Iteration    1 A^-1*A deviation from unit magnitude is 2.44D-15 for    808.
 Iteration    1 A^-1*A deviation from orthogonality  is 1.31D-15 for    671    352.
 Error on total polarization charges =  0.00387
 SCF Done:  E(RB3LYP) =  -154.186117548     A.U. after    7 cycles
            NFock=  7  Conv=0.85D-08     -V/T= 2.0087
 D1PCM: PCM CHGder 1st derivatives, ID1Alg=3 FixD1E=F DoIter=F DoCFld=F I1PDM=0.
 Calling FoFJK, ICntrl=      2127 FMM=F ISym2X=0 I1Cent= 0 IOpClX= 0 NMat=1 NMatS=1 NMatT=0.
 ***** Axes restored to original set *****
 -------------------------------------------------------------------
 Center     Atomic                   Forces (Hartrees/Bohr)
 Number     Number              X              Y              Z
 -------------------------------------------------------------------
      1        6           0.000065327   -0.000110401    0.000191971
      2        1          -0.000027547    0.000042380   -0.000036159
      3        1          -0.000027048    0.000012152   -0.000052448
      4        6          -0.000101906    0.000012139   -0.000028131
      5        1          -0.000010414   -0.000023858    0.000041643
      6        1           0.000012145    0.000001390    0.000006911
      7        1           0.000010006   -0.000006224    0.000001396
      8        8           0.000239171    0.000071953   -0.000116378
      9        1          -0.000159733    0.000000470   -0.000008805
 -------------------------------------------------------------------
 Cartesian Forces:  Max     0.000239171 RMS     0.000080827

 GradGradGradGradGradGradGradGradGradGradGradGradGradGradGradGradGradGrad
 Berny optimization.
 Using GEDIIS/GDIIS optimizer.
 FormGI is forming the generalized inverse of G from B-inverse, IUseBI=4.
 Internal  Forces:  Max     0.000160191 RMS     0.000047391
 Search for a local minimum.
 Step number   5 out of a maximum of   43
 All quantities printed in internal units (Hartrees-Bohrs-Radians)
 Mixed Optimization -- En-DIIS/RFO-DIIS
 Swapping is turned off.
 Update second derivatives using D2CorX and points    1    2    3    4    5
 DE= -1.78D-06 DEPred=-1.59D-06 R= 1.12D+00
 TightC=F SS=  1.41D+00  RLast= 5.17D-03 DXNew= 8.4853D-01 1.5508D-02
 Trust test= 1.12D+00 RLast= 5.17D-03 DXMaxT set to 5.05D-01
 ITU=  1  1  1  1  0
     Eigenvalues ---    0.00237   0.01292   0.05278   0.05421   0.05557
     Eigenvalues ---    0.05715   0.10921   0.13464   0.14938   0.16000
     Eigenvalues ---    0.16022   0.16850   0.22985   0.29198   0.31840
     Eigenvalues ---    0.37230   0.37230   0.37414   0.37492   0.39262
     Eigenvalues ---    0.52561
 En-DIIS/RFO-DIIS/Sim-DIIS IScMMF=       -3 using points:     5    4    3
 RFO step:  Lambda=-2.49866410D-07.
 DidBck=F Rises=F RFO-DIIS coefs:    1.16506   -0.16783    0.00277
 Iteration  1 RMS(Cart)=  0.00020214 RMS(Int)=  0.00000008
 Iteration  2 RMS(Cart)=  0.00000003 RMS(Int)=  0.00000008
 Variable       Old X    -DE/DX   Delta X   Delta X   Delta X     New X
                                 (Linear)    (Quad)   (Total)
    R1        2.07860  -0.00005  -0.00014  -0.00008  -0.00022   2.07838
    R2        2.07858  -0.00005  -0.00014  -0.00007  -0.00021   2.07838
    R3        2.88965   0.00009  -0.00016   0.00038   0.00022   2.88987
    R4        2.76886   0.00016   0.00036   0.00026   0.00062   2.76948
    R5        2.06789   0.00005  -0.00010   0.00019   0.00009   2.06798
    R6        2.06808  -0.00000  -0.00003  -0.00000  -0.00003   2.06805
    R7        2.06808  -0.00000  -0.00004   0.00001  -0.00003   2.06805
    R8        1.88099  -0.00016  -0.00007  -0.00025  -0.00032   1.88067
    A1        1.87973   0.00003   0.00019   0.00024   0.00043   1.88016
    A2        1.91622  -0.00002   0.00016  -0.00021  -0.00005   1.91617
    A3        1.95004  -0.00003  -0.00016  -0.00012  -0.00028   1.94976
    A4        1.91620  -0.00002   0.00015  -0.00017  -0.00002   1.91618
    A5        1.95005  -0.00003  -0.00016  -0.00011  -0.00027   1.94978
    A6        1.85177   0.00006  -0.00017   0.00035   0.00018   1.85195
    A7        1.93011  -0.00001  -0.00002   0.00002  -0.00001   1.93011
    A8        1.91546  -0.00001   0.00009  -0.00017  -0.00008   1.91537
    A9        1.91543  -0.00001   0.00008  -0.00013  -0.00005   1.91538
   A10        1.90374   0.00001  -0.00005   0.00007   0.00002   1.90375
   A11        1.90372   0.00001  -0.00005   0.00007   0.00002   1.90374
   A12        1.89494   0.00001  -0.00005   0.00016   0.00011   1.89505
   A13        1.87390   0.00001  -0.00015   0.00018   0.00003   1.87393
    D1        1.03162   0.00001   0.00022  -0.00002   0.00020   1.03183
    D2        3.13271   0.00000   0.00020  -0.00004   0.00016   3.13287
    D3       -1.06942   0.00001   0.00025  -0.00003   0.00021  -1.06921
    D4       -1.03175  -0.00001  -0.00019  -0.00009  -0.00028  -1.03203
    D5        1.06934  -0.00001  -0.00021  -0.00011  -0.00032   1.06902
    D6       -3.13279  -0.00001  -0.00017  -0.00010  -0.00027  -3.13306
    D7        3.14153  -0.00000   0.00002  -0.00008  -0.00005   3.14148
    D8       -1.04057  -0.00000   0.00000  -0.00009  -0.00009  -1.04066
    D9        1.04049   0.00000   0.00005  -0.00009  -0.00004   1.04044
   D10       -1.05445  -0.00000   0.00005   0.00008   0.00013  -1.05432
   D11        1.05289   0.00000   0.00007   0.00024   0.00030   1.05319
   D12        3.14080   0.00000   0.00005   0.00019   0.00024   3.14104
         Item               Value     Threshold  Converged?
 Maximum Force            0.000160     0.000450     YES
 RMS     Force            0.000047     0.000300     YES
 Maximum Displacement     0.000651     0.001800     YES
 RMS     Displacement     0.000202     0.001200     YES
 Predicted change in Energy=-1.249311D-07
 Optimization completed.
    -- Stationary point found.
                           ----------------------------
                           !   Optimized Parameters   !
                           ! (Angstroms and Degrees)  !
 --------------------------                            --------------------------
 ! Name  Definition              Value          Derivative Info.                !
 --------------------------------------------------------------------------------
 ! R1    R(1,2)                  1.0999         -DE/DX =    0.0                 !
 ! R2    R(1,3)                  1.0999         -DE/DX =    0.0                 !
 ! R3    R(1,4)                  1.5291         -DE/DX =    0.0001              !
 ! R4    R(1,8)                  1.4652         -DE/DX =    0.0002              !
 ! R5    R(4,5)                  1.0943         -DE/DX =    0.0                 !
 ! R6    R(4,6)                  1.0944         -DE/DX =    0.0                 !
 ! R7    R(4,7)                  1.0944         -DE/DX =    0.0                 !
 ! R8    R(8,9)                  0.9954         -DE/DX =   -0.0002              !
 ! A1    A(2,1,3)              107.7004         -DE/DX =    0.0                 !
 ! A2    A(2,1,4)              109.7912         -DE/DX =    0.0                 !
 ! A3    A(2,1,8)              111.7293         -DE/DX =    0.0                 !
 ! A4    A(3,1,4)              109.7904         -DE/DX =    0.0                 !
 ! A5    A(3,1,8)              111.7294         -DE/DX =    0.0                 !
 ! A6    A(4,1,8)              106.0985         -DE/DX =    0.0001              !
 ! A7    A(1,4,5)              110.5873         -DE/DX =    0.0                 !
 ! A8    A(1,4,6)              109.7475         -DE/DX =    0.0                 !
 ! A9    A(1,4,7)              109.7463         -DE/DX =    0.0                 !
 ! A10   A(5,4,6)              109.0763         -DE/DX =    0.0                 !
 ! A11   A(5,4,7)              109.0752         -DE/DX =    0.0                 !
 ! A12   A(6,4,7)              108.5721         -DE/DX =    0.0                 !
 ! A13   A(1,8,9)              107.3664         -DE/DX =    0.0                 !
 ! D1    D(2,1,4,5)             59.1076         -DE/DX =    0.0                 !
 ! D2    D(2,1,4,6)            179.4908         -DE/DX =    0.0                 !
 ! D3    D(2,1,4,7)            -61.2734         -DE/DX =    0.0                 !
[...]
 Electronic               0.000              0.000              0.000
 Translational            0.889              2.981             37.406
 Rotational               0.889              2.981             22.387
 Vibrational             50.973              7.526              4.842
 Vibration     1          0.658              1.777              1.795
 Vibration     2          0.688              1.687              1.456
 Vibration     3          0.763              1.477              0.974
                       Q            Log10(Q)             Ln(Q)
 Total Bot       0.105980D-24        -24.974777        -57.506549
 Total V=0       0.508321D+12         11.706138         26.954378
 Vib (Bot)       0.495339D-36        -36.305098        -83.595577
 Vib (Bot)    1  0.813017D+00         -0.089901         -0.207004
 Vib (Bot)    2  0.651243D+00         -0.186257         -0.428872
 Vib (Bot)    3  0.450044D+00         -0.346745         -0.798409
 Vib (V=0)       0.237584D+01          0.375817          0.865351
 Vib (V=0)    1  0.145446D+01          0.162702          0.374635
 Vib (V=0)    2  0.132105D+01          0.120918          0.278424
 Vib (V=0)    3  0.117271D+01          0.069191          0.159318
 Electronic      0.100000D+01          0.000000          0.000000
 Translational   0.122796D+08          7.089183         16.323448
 Rotational      0.174236D+05          4.241138          9.765580
 ***** Axes restored to original set *****
 -------------------------------------------------------------------
 Center     Atomic                   Forces (Hartrees/Bohr)
 Number     Number              X              Y              Z
 -------------------------------------------------------------------
      1        6           0.000065327   -0.000110400    0.000191968
      2        1          -0.000027547    0.000042380   -0.000036159
      3        1          -0.000027048    0.000012152   -0.000052448
      4        6          -0.000101902    0.000012140   -0.000028133
      5        1          -0.000010415   -0.000023859    0.000041643
      6        1           0.000012144    0.000001389    0.000006911
      7        1           0.000010005   -0.000006224    0.000001396
      8        8           0.000239162    0.000071951   -0.000116374
      9        1          -0.000159726    0.000000470   -0.000008805
 -------------------------------------------------------------------
 Cartesian Forces:  Max     0.000239162 RMS     0.000080825
 FormGI is forming the generalized inverse of G from B-inverse, IUseBI=4.

 GradGradGradGradGradGradGradGradGradGradGradGradGradGradGradGradGradGrad
 Berny optimization.
 Internal  Forces:  Max     0.000160187 RMS     0.000047389
 Search for a local minimum.
 Step number   1 out of a maximum of    2
 All quantities printed in internal units (Hartrees-Bohrs-Radians)
 Second derivative matrix not updated -- analytic derivatives used.
 ITU=  0
     Eigenvalues ---    0.00225   0.00332   0.04660   0.04803   0.05201
     Eigenvalues ---    0.06433   0.10218   0.12537   0.13053   0.14167
     Eigenvalues ---    0.17159   0.17642   0.23579   0.29222   0.31704
     Eigenvalues ---    0.32280   0.34049   0.34190   0.34985   0.36564
     Eigenvalues ---    0.43749
 Angle between quadratic step and forces=  58.40 degrees.
 Linear search not attempted -- first point.
 Iteration  1 RMS(Cart)=  0.00026389 RMS(Int)=  0.00000010
 Iteration  2 RMS(Cart)=  0.00000009 RMS(Int)=  0.00000000
 Variable       Old X    -DE/DX   Delta X   Delta X   Delta X     New X
                                 (Linear)    (Quad)   (Total)
    R1        2.07860  -0.00005   0.00000  -0.00021  -0.00021   2.07839
    R2        2.07858  -0.00005   0.00000  -0.00020  -0.00020   2.07839
    R3        2.88965   0.00009   0.00000   0.00034   0.00034   2.89000
    R4        2.76886   0.00016   0.00000   0.00061   0.00061   2.76947
    R5        2.06789   0.00005   0.00000   0.00014   0.00014   2.06802
    R6        2.06808  -0.00000   0.00000  -0.00002  -0.00002   2.06806
    R7        2.06808  -0.00000   0.00000  -0.00002  -0.00002   2.06806
    R8        1.88099  -0.00016   0.00000  -0.00036  -0.00036   1.88064
    A1        1.87973   0.00003   0.00000   0.00053   0.00053   1.88025
    A2        1.91622  -0.00002   0.00000  -0.00007  -0.00007   1.91615
    A3        1.95004  -0.00003   0.00000  -0.00027  -0.00027   1.94978
    A4        1.91620  -0.00002   0.00000  -0.00005  -0.00005   1.91615
    A5        1.95005  -0.00003   0.00000  -0.00027  -0.00027   1.94978
    A6        1.85177   0.00006   0.00000   0.00011   0.00011   1.85188
    A7        1.93011  -0.00001   0.00000  -0.00016  -0.00016   1.92995
    A8        1.91546  -0.00001   0.00000  -0.00008  -0.00008   1.91537
    A9        1.91543  -0.00001   0.00000  -0.00006  -0.00006   1.91537
   A10        1.90374   0.00001   0.00000   0.00005   0.00005   1.90379
   A11        1.90372   0.00001   0.00000   0.00007   0.00007   1.90379
   A12        1.89494   0.00001   0.00000   0.00019   0.00019   1.89513
   A13        1.87390   0.00001   0.00000  -0.00011  -0.00011   1.87378
    D1        1.03162   0.00001   0.00000   0.00035   0.00035   1.03197
    D2        3.13271   0.00000   0.00000   0.00026   0.00026   3.13296
    D3       -1.06942   0.00001   0.00000   0.00040   0.00040  -1.06902
    D4       -1.03175  -0.00001   0.00000  -0.00022  -0.00022  -1.03197
    D5        1.06934  -0.00001   0.00000  -0.00031  -0.00031   1.06902
    D6       -3.13279  -0.00001   0.00000  -0.00017  -0.00017  -3.13296
    D7        3.14153  -0.00000   0.00000   0.00006   0.00006  -3.14159
    D8       -1.04057  -0.00000   0.00000  -0.00003  -0.00003  -1.04060
    D9        1.04049   0.00000   0.00000   0.00011   0.00011   1.04060
   D10       -1.05445  -0.00000   0.00000   0.00063   0.00063  -1.05382
   D11        1.05289   0.00000   0.00000   0.00093   0.00093   1.05382
   D12        3.14080   0.00000   0.00000   0.00079   0.00079   3.14159
         Item               Value     Threshold  Converged?
 Maximum Force            0.000160     0.000450     YES
 RMS     Force            0.000047     0.000300     YES
 Maximum Displacement     0.000767     0.001800     YES
 RMS     Displacement     0.000264     0.001200     YES
 Predicted change in Energy=-1.369691D-07
 Optimization completed.
    -- Stationary point found.
                           ----------------------------
                           !   Optimized Parameters   !
                           ! (Angstroms and Degrees)  !
 --------------------------                            --------------------------
 ! Name  Definition              Value          Derivative Info.                !
 --------------------------------------------------------------------------------
 ! R1    R(1,2)                  1.0999         -DE/DX =    0.0                 !
 ! R2    R(1,3)                  1.0999         -DE/DX =    0.0                 !
 ! R3    R(1,4)                  1.5291         -DE/DX =    0.0001              !
 ! R4    R(1,8)                  1.4652         -DE/DX =    0.0002              !
 ! R5    R(4,5)                  1.0943         -DE/DX =    0.0                 !
 ! R6    R(4,6)                  1.0944         -DE/DX =    0.0                 !
 ! R7    R(4,7)                  1.0944         -DE/DX =    0.0                 !
 ! R8    R(8,9)                  0.9954         -DE/DX =   -0.0002              !
 ! A1    A(2,1,3)              107.7004         -DE/DX =    0.0                 !
 ! A2    A(2,1,4)              109.7912         -DE/DX =    0.0                 !
 ! A3    A(2,1,8)              111.7293         -DE/DX =    0.0                 !
 ! A4    A(3,1,4)              109.7904         -DE/DX =    0.0                 !
 ! A5    A(3,1,8)              111.7294         -DE/DX =    0.0                 !
 ! A6    A(4,1,8)              106.0985         -DE/DX =    0.0001              !
 ! A7    A(1,4,5)              110.5873         -DE/DX =    0.0                 !
 ! A8    A(1,4,6)              109.7475         -DE/DX =    0.0                 !
 ! A9    A(1,4,7)              109.7463         -DE/DX =    0.0                 !
 ! A10   A(5,4,6)              109.0763         -DE/DX =    0.0                 !
 ! A11   A(5,4,7)              109.0752         -DE/DX =    0.0                 !
 ! A12   A(6,4,7)              108.5721         -DE/DX =    0.0                 !
 ! A13   A(1,8,9)              107.3664         -DE/DX =    0.0                 !
 ! D1    D(2,1,4,5)             59.1076         -DE/DX =    0.0                 !
 ! D2    D(2,1,4,6)            179.4908         -DE/DX =    0.0                 !
 ! D3    D(2,1,4,7)            -61.2734         -DE/DX =    0.0                 !
 ! D4    D(3,1,4,5)            -59.1147         -DE/DX =    0.0                 !
 ! D5    D(3,1,4,6)             61.2685         -DE/DX =    0.0                 !
 ! D6    D(3,1,4,7)           -179.4958         -DE/DX =    0.0                 !
 ! D7    D(8,1,4,5)           -180.0034         -DE/DX =    0.0                 !
 ! D8    D(8,1,4,6)            -59.6202         -DE/DX =    0.0                 !
 ! D9    D(8,1,4,7)             59.6155         -DE/DX =    0.0                 !
 ! D10   D(2,1,8,9)            -60.4156         -DE/DX =    0.0                 !
 ! D11   D(3,1,8,9)             60.326          -DE/DX =    0.0                 !
 ! D12   D(4,1,8,9)            179.9548         -DE/DX =    0.0                 !
 --------------------------------------------------------------------------------
 GradGradGradGradGradGradGradGradGradGradGradGradGradGradGradGradGradGrad


 ----------------------------------------------------------------------

 Electric dipole moment (input orientation):
 (Debye = 10**-18 statcoulomb cm , SI units = C m)
                  (au)            (Debye)         (10**-30 SI)
   Tot        0.790532D+00      0.200933D+01      0.670241D+01
   x          0.504596D+00      0.128256D+01      0.427814D+01
   y         -0.304202D+00     -0.773203D+00     -0.257913D+01
   z          0.527054D+00      0.133964D+01      0.446855D+01

 Dipole polarizability, Alpha (input orientation).
 (esu units = cm**3 , SI units = C**2 m**2 J**-1)
 Alpha(0;0):
               (au)            (10**-24 esu)      (10**-40 SI)
   iso        0.290793D+02      0.430911D+01      0.479454D+01
   aniso      0.645501D+01      0.956534D+00      0.106429D+01
   xx         0.319953D+02      0.474122D+01      0.527532D+01
   yx         0.103064D+01      0.152725D+00      0.169930D+00
   yy         0.267168D+02      0.395902D+01      0.440500D+01
   zx        -0.177437D+01     -0.262934D+00     -0.292554D+00
   zy        -0.157574D+01     -0.233501D+00     -0.259805D+00
   zz         0.285259D+02      0.422711D+01      0.470329D+01

 ----------------------------------------------------------------------

 Dipole orientation:
     6          0.60911313          2.47122732         -0.79625179
     1          0.81682417          0.80067087          0.42303836
     1          0.17224867          4.09503304          0.42559602
     6         -1.54757822          2.05073389         -2.67294292
     1         -3.32386904          1.70229170         -1.67317854
     1         -1.76422160          3.72032266         -3.87398175
     1         -1.11925425          0.42451784         -3.87665383
     8          2.87741930          2.91622872         -2.32050112
     1          4.30720303          3.19648305         -1.13083344

 Electric dipole moment (dipole orientation):
 (Debye = 10**-18 statcoulomb cm , SI units = C m)
                  (au)            (Debye)         (10**-30 SI)
   Tot        0.790532D+00      0.200933D+01      0.670241D+01
   x          0.000000D+00      0.000000D+00      0.000000D+00
   y          0.000000D+00      0.000000D+00      0.000000D+00
   z          0.790532D+00      0.200933D+01      0.670241D+01

 Dipole polarizability, Alpha (dipole orientation).
 (esu units = cm**3 , SI units = C**2 m**2 J**-1)
 Alpha(0;0):
               (au)            (10**-24 esu)      (10**-40 SI)
   iso        0.290793D+02      0.430911D+01      0.479454D+01
   aniso      0.645501D+01      0.956534D+00      0.106429D+01
   xx         0.327046D+02      0.484632D+01      0.539226D+01
   yx         0.135338D+01      0.200550D+00      0.223142D+00
   yy         0.260699D+02      0.386316D+01      0.429834D+01
   zx         0.860333D+00      0.127488D+00      0.141850D+00
   zy         0.167587D+00      0.248338D-01      0.276313D-01
   zz         0.284636D+02      0.421787D+01      0.469301D+01

 ----------------------------------------------------------------------
 1\1\GINC-XII\Freq\RB3LYP\3-21G\C2H6O1\GREG\13-Oct-2025\0\\#N Geom=AllC
 heck Guess=TCheck SCRF=Check GenChk RB3LYP/3-21G Freq\\Title Card Requ
 ired\\0,1\C,0.1673002613,1.4011779082,0.016552482\H,0.531913658,0.3636
 102228,0.0363902249\H,0.531972179,1.9012434971,0.9258457035\C,-1.36167
 64819,1.4123946728,-0.0027085188\H,-1.7613526152,0.9022830677,0.879044
 8743\H,-1.7237718606,2.4450826687,-0.0132870295\H,-1.7238248642,0.9068
 076607,-0.9032089973\O,0.5940671197,2.1030175009,-1.1967697886\H,1.589
 4169037,2.1073940609,-1.2029219703\\Version=ES64L-G16RevA.03\State=1-A
 \HF=-154.1861175\RMSD=9.913e-10\RMSF=8.082e-05\ZeroPoint=0.0797467\The
 rmal=0.0840628\Dipole=0.5045962,-0.3042016,0.5270538\DipoleDeriv=0.465
 5865,0.1219054,-0.2107974,0.0865911,0.5793694,-0.0867017,-0.1498255,-0
 .0868423,0.6787875,-0.0455108,0.0830707,0.0279139,0.0847961,-0.2486262
 ,0.0424148,0.0478983,0.0346427,-0.0280893,-0.0454761,-0.0656081,-0.058
 0879,-0.0838061,-0.0495892,-0.0798047,-0.049611,-0.0720081,-0.2270119,
 -0.1310318,-0.0153262,0.0264867,-0.0079689,0.0741592,0.0020296,0.01386
 15,0.0020494,0.071841,0.0328622,-0.0311975,0.0539184,-0.0473296,0.0407
 728,0.0945705,0.0818196,0.0945677,-0.0679705,0.0354855,0.0667045,-0.00
 65618,0.1018253,-0.1393974,-0.0016339,-0.028621,0.0065376,0.0969413,0.
 0354954,-0.0275575,-0.0611073,-0.0259413,0.0403395,-0.0968167,-0.10255
 11,-0.1049785,-0.0827836,-0.3390912,-0.1295148,0.2244944,-0.1368193,-0
 .69226,0.067576,0.2370106,0.0677217,-0.7697411,-0.0083198,-0.0024766,0
 .0037411,0.0286527,0.395232,0.0583661,-0.0499813,0.0583098,0.3280266\P
 olar=31.9953322,1.0306409,26.7167794,-1.7743676,-1.5757423,28.5259359\
 Quadrupole=2.4301345,-0.9986417,-1.4314928,0.3001616,-0.5149317,0.3743
 098\PG=C01 [X(C2H6O1)]\NImag=0\\0.48698404,-0.02342602,0.55767563,0.04
 057130,0.05131790,0.49865676,-0.08047381,0.07463754,-0.00131163,0.0880
 2484,0.07595511,-0.26433376,-0.00892053,-0.08317625,0.29181293,0.00103
 018,-0.00989084,-0.05323883,-0.00256612,0.00032049,0.06139569,-0.08047
 912,-0.03608120,-0.06537215,0.00536851,0.00739593,0.00883924,0.0880347
 9,-0.03877151,-0.11383647,-0.09644893,-0.01135204,-0.01682576,-0.02753
 022,0.04370037,0.11894259,-0.06534165,-0.09547170,-0.20375173,-0.00200
 457,-0.00351246,0.00102733,0.07084009,0.09974340,0.23427354,-0.1742979
 9,0.00510935,-0.00882502,-0.01541598,-0.00089532,-0.00109015,-0.015418
 25,0.00139169,0.00023405,0.45928283,0.01014553,-0.08208651,-0.00465571
 ,0.03539966,0.00118215,-0.00055590,-0.01856096,-0.00005700,-0.00026992
 ,0.00275140,0.58239369,-0.01752829,-0.00465632,-0.07673617,0.00105457,
 -0.00098544,0.00041918,-0.03016155,0.00015967,0.00166022,-0.00475202,-
 0.00383877,0.58679562,-0.00877896,-0.01739012,0.03006012,0.00117122,0.
 00094493,-0.00012978,0.00117130,-0.00035879,-0.00088331,-0.08442180,-0
 .04305529,0.07442607,0.09242770,0.00148709,-0.00177509,-0.00181109,-0.
 00047895,0.00015314,-0.00010424,-0.00014285,-0.00008782,-0.00022346,-0
 .04454186,-0.10636442,0.09970764,0.04921475,0.11314438,-0.00257074,-0.
 00180976,0.00030622,0.00044053,-0.00036218,0.00010056,0.00063457,0.000
 03435,0.00034186,0.07699533,0.09970784,-0.22103133,-0.08507098,-0.1107
 8598,0.24055250,-0.01698130,0.03892768,-0.00054641,-0.00691838,-0.0006
 0056,0.00053899,0.00202188,-0.00035987,0.00005991,-0.07523874,0.076399
 72,-0.00075573,0.00395011,-0.01313449,-0.00115147,0.08536812,-0.001023
 50,-0.00067537,0.00040887,-0.00022574,0.00135365,0.00058889,0.00052813
 ,0.00096576,0.00034107,0.08009945,-0.28491165,0.00110109,0.00470388,-0
 .01434036,-0.00084166,-0.08880772,0.31153556,-0.00043139,0.00229151,-0
 .00125726,-0.00034907,-0.00005864,0.00104997,0.00027662,0.00079168,-0.
 00007807,-0.00152863,0.00040761,-0.05074123,-0.01060662,0.02670876,0.0
 0030167,0.00284443,-0.00171653,0.04984020,-0.01698487,-0.01893065,-0.0
 3401922,0.00202195,0.00012731,0.00034199,-0.00691857,-0.00016726,0.000
 78976,-0.07524684,-0.03743281,-0.06661774,0.00395119,0.00754482,0.0108
 1267,0.00324994,0.00478749,0.00996533,0.08537862,0.00088452,0.00005533
 ,0.00187336,-0.00050312,0.00067082,0.00096121,0.00041552,0.00135460,-0
 .00005924,-0.03860734,-0.10827173,-0.10115367,0.00685074,0.00784049,0.
 01395363,-0.01102739,-0.01491655,-0.02778988,0.04180840,0.11337827,0.0
 0067206,-0.00001089,-0.00198466,-0.00032008,0.00051066,0.00021677,0.00
 002254,0.00058848,0.00104901,-0.07020937,-0.10045994,-0.22736980,-0.00
 936684,-0.01359613,-0.02188154,0.00081736,0.00092321,0.00053171,0.0784
 1674,0.11221687,0.24798594,-0.09468978,-0.02959674,0.05113058,0.005007
 94,0.00035831,-0.00576730,0.00500225,0.00482291,-0.00319208,-0.0198089
 4,-0.02287759,0.03954696,-0.00868122,-0.00007524,0.00012953,0.00387008
 ,0.00000924,-0.00001791,0.00386986,0.00001062,-0.00001812,0.52864274,-
 0.00013462,-0.09051937,0.05355700,-0.01352561,-0.01469466,0.03724232,0
 .00181580,0.00902669,-0.00040242,-0.00471157,-0.00001141,0.00615567,0.
 00017100,0.00079032,-0.00010012,-0.00109102,0.00074099,-0.00073615,0.0
 0173968,-0.00001288,-0.00021474,0.02859245,0.10655701,0.00016387,0.053
 50299,-0.15209746,0.00568169,0.01325211,-0.01216341,0.01456000,0.02359
 946,-0.03588769,0.00813994,0.00615173,-0.00708153,-0.00030082,-0.00009
 982,0.00090666,-0.00138045,-0.00064812,0.00053434,0.00025715,-0.000303
 70,0.00128741,-0.04874854,-0.11119677,0.23448421,-0.01429821,0.0067501
 6,-0.01168756,0.00121371,-0.00010946,-0.00119705,0.00121722,0.00109449
 ,-0.00050221,0.00056570,-0.00276966,0.00478773,-0.00078954,0.00012674,
 -0.00021944,0.00067829,-0.00007124,-0.00015276,0.00067872,0.00016804,-
 0.00001429,-0.42321294,-0.01285612,0.02162716,0.43394704,-0.02511660,-
 0.00450439,0.00467913,-0.00077549,0.00068147,-0.00103171,0.00092926,0.
 00051740,-0.00014527,-0.00059582,-0.00187312,0.00351012,-0.00108111,0.
 00063936,0.00020386,-0.00030635,0.00024799,0.00010164,0.00052301,-0.00
 009834,0.00004247,0.01875603,-0.01187669,0.01574214,0.00766706,0.01626
 632,0.04343466,0.00472712,-0.00989688,-0.00062532,-0.00024403,0.001192
 74,0.00036063,-0.00093788,0.00136551,0.00103587,0.00351306,-0.00591496
 ,0.00187215,0.00020431,0.00040342,-0.00042662,-0.00015682,-0.00018133,
 0.00005332,0.00030140,0.00016516,-0.03306312,0.01569521,-0.02998253,-0
 .01264158,-0.02310238,0.04284888\\-0.00006533,0.00011040,-0.00019197,0
 .00002755,-0.00004238,0.00003616,0.00002705,-0.00001215,0.00005245,0.0
 0010190,-0.00001214,0.00002813,0.00001042,0.00002386,-0.00004164,-0.00
 001214,-0.00000139,-0.00000691,-0.00001000,0.00000622,-0.00000140,-0.0
 0023916,-0.00007195,0.00011637,0.00015973,-0.00000047,0.00000881\\\@


            ARSENIC

 FOR SMELTER FUMES HAVE I BEEN NAMED,
    I AM AN EVIL POISONOUS SMOKE...
 BUT WHEN FROM POISON I AM FREED,
    THROUGH ART AND SLEIGHT OF HAND,
 THEN CAN I CURE BOTH MAN AND BEAST,
    FROM DIRE DISEASE OFTTIMES DIRECT THEM;
 BUT PREPARE ME CORRECTLY, AND TAKE GREAT CARE
    THAT YOU FAITHFULLY KEEP WATCHFUL GUARD OVER ME;
 FOR ELSE I AM POISON, AND POISON REMAIN,
    THAT PIERCES THE HEART OF MANY A ONE.

 ATTRIBUTED TO THE PROBABLY MYTHICAL 15TH
 CENTURY MONK, BASILIUS VALENTINUS
 Job cpu time:       0 days  0 hours  2 minutes 32.3 seconds.
 Elapsed time:       0 days  0 hours  0 minutes 22.6 seconds.
 File lengths (MBytes):  RWF=     23 Int=      0 D2E=      0 Chk=      4 Scr=      1
 Normal termination of Gaussian 16 at Mon Oct 13 14:54:49 2025.
